BTO                                     
           1
    11.902737    0.000000    0.000000
     0.000000   11.902736    0.000000
     0.000000    0.000000   12.193815
   Ba   Ti   O 
  27  27  81
Direct configuration=     1
   0.99999651  0.00000054  0.00052380
   0.33333126  0.00000042  0.00052359
   0.66666857  0.00000053  0.00052309
   0.00000069  0.33333177  0.00052381
   0.33333472  0.33333267  0.00052220
   0.66666467  0.33333321  0.00052155
   0.00000117  0.66666841  0.00052385
   0.33333228  0.66666774  0.00052292
   0.66666666  0.66666620  0.00052221
   0.99999942  0.99999955  0.33393146
   0.33333338  0.99999954  0.33393683
   0.66666657  0.99999930  0.33393678
   0.00000019  0.33333387  0.33393618
   0.33333379  0.33333362  0.33393643
   0.66666711  0.33333404  0.33393610
   0.99999999  0.66666680  0.33393571
   0.33333317  0.66666651  0.33393600
   0.66666649  0.66666671  0.33393511
   0.99999951  0.99999808  0.66719605
   0.33333229  0.99999978  0.66719590
   0.66666739  0.99999981  0.66719628
   0.00000034  0.33333227  0.66719594
   0.33333383  0.33333414  0.66719663
   0.66666623  0.33333456  0.66719706
   0.00000068  0.66666653  0.66719716
   0.33333362  0.66666572  0.66719748
   0.66666599  0.66666527  0.66719788
   0.16666702  0.16666657  0.17282298
   0.50000008  0.16666470  0.17282330
   0.83333248  0.16666724  0.17282331
   0.16666709  0.49999924  0.17282195
   0.49999989  0.49999857  0.17282389
   0.83333354  0.49999927  0.17282170
   0.16666529  0.83333302  0.17282216
   0.49999798  0.83333198  0.17282159
   0.83333059  0.83333223  0.17282244
   0.16666526  0.16666537  0.50613909
   0.49999922  0.16666576  0.50614026
   0.83333264  0.16666602  0.50613937
   0.16666585  0.49999912  0.50613962
   0.49999935  0.49999943  0.50613964
   0.83333289  0.49999978  0.50614022
   0.16666563  0.83333249  0.50613897
   0.49999926  0.83333223  0.50614043
   0.83333240  0.83333249  0.50613921
   0.16666643  0.16666647  0.83941905
   0.49999989  0.16666537  0.83942027
   0.83333323  0.16666679  0.83941845
   0.16666581  0.49999962  0.83942124
   0.49999982  0.49999995  0.83942082
   0.83333483  0.49999951  0.83942164
   0.16666688  0.83333397  0.83941920
   0.50000005  0.83333454  0.83942105
   0.83333356  0.83333265  0.83941869
   0.99999986  0.16666685  0.16128476
   0.16666649  0.00000049  0.16128427
   0.16666678  0.16666674  0.99048111
   0.33333325  0.16666684  0.16128487
   0.50000026  0.00000101  0.16128508
   0.49999997  0.16666538  0.99048257
   0.66666680  0.16666711  0.16128489
   0.83333303  0.00000038  0.16128498
   0.83333196  0.16666808  0.99047959
   0.00000037  0.49999983  0.16128503
   0.16666700  0.33333339  0.16128449
   0.16666652  0.49999932  0.99048359
   0.33333374  0.50000003  0.16128618
   0.50000001  0.33333395  0.16128659
   0.49999992  0.49999991  0.99048367
   0.66666673  0.49999993  0.16128599
   0.83333330  0.33333315  0.16128442
   0.83333480  0.49999944  0.99048394
   0.00000077  0.83333383  0.16128449
   0.16666715  0.66666723  0.16128423
   0.16666676  0.83333398  0.99048144
   0.33333397  0.83333372  0.16128390
   0.50000016  0.66666723  0.16128576
   0.50000014  0.83333483  0.99048352
   0.66666789  0.83333325  0.16128406
   0.83333372  0.66666712  0.16128425
   0.83333292  0.83333293  0.99048113
   0.00000063  0.16666679  0.49461716
   0.16666673  0.00000063  0.49461707
   0.16666668  0.16666673  0.32388547
   0.33333405  0.16666665  0.49461739
   0.50000057  0.00000055  0.49461830
   0.50000029  0.16666637  0.32388585
   0.66666749  0.16666667  0.49461749
   0.83333403  0.00000042  0.49461734
   0.83333339  0.16666713  0.32388569
   0.00000065  0.50000069  0.49461717
   0.16666648  0.33333416  0.49461701
   0.16666675  0.50000021  0.32388478
   0.33333393  0.50000057  0.49461793
   0.50000040  0.33333436  0.49461805
   0.50000011  0.50000042  0.32388765
   0.66666717  0.50000059  0.49461819
   0.83333424  0.33333393  0.49461751
   0.83333367  0.50000014  0.32388474
   0.00000059  0.83333399  0.49461734
   0.16666666  0.66666758  0.49461706
   0.16666700  0.83333390  0.32388484
   0.33333401  0.83333434  0.49461746
   0.50000032  0.66666724  0.49461805
   0.50000026  0.83333368  0.32388442
   0.66666743  0.83333399  0.49461743
   0.83333402  0.66666727  0.49461733
   0.83333323  0.83333314  0.32388535
   0.99999994  0.16666711  0.82788045
   0.16666668  0.99999970  0.82788030
   0.16666694  0.16666704  0.65718549
   0.33333356  0.16666662  0.82788089
   0.50000002  0.99999985  0.82788201
   0.50000020  0.16666733  0.65718638
   0.66666607  0.16666698  0.82788093
   0.83333271  0.99999992  0.82788074
   0.83333317  0.16666709  0.65718593
   0.00000030  0.49999933  0.82788319
   0.16666716  0.33333380  0.82788115
   0.16666674  0.50000004  0.65718580
   0.33333348  0.49999980  0.82788366
   0.50000002  0.33333352  0.82788364
   0.50000017  0.50000014  0.65718713
   0.66666714  0.49999985  0.82788423
   0.83333332  0.33333407  0.82788117
   0.83333400  0.50000021  0.65718634
   0.99999982  0.83333301  0.82788084
   0.16666662  0.66666604  0.82788186
   0.16666706  0.83333315  0.65718565
   0.33333341  0.83333347  0.82788139
   0.49999999  0.66666685  0.82788394
   0.50000023  0.83333309  0.65718621
   0.66666604  0.83333307  0.82788138
   0.83333373  0.66666604  0.82788182
   0.83333297  0.83333280  0.65718607
BTO                                     
           1
    11.901626    0.001051   -0.000194
     0.000000   11.902529   -0.000748
     0.000000    0.000000   12.193402
   Ba   Ti   O 
  27  27  81
Direct configuration=     2
   1.00000767 -0.00000892  0.00053422
   0.33333975  0.00000630  0.00050902
   0.66665386  0.00001353  0.00052427
   0.00000100  0.33332046  0.00052695
   0.33330389  0.33335979  0.00052295
   0.66664242  0.33331996  0.00052285
  -0.00001276  0.66664792  0.00053234
   0.33333072  0.66669405  0.00052071
   0.66666867  0.66665576  0.00054647
   1.00001975  1.00002670  0.33393984
   0.33331417  0.99998526  0.33394896
   0.66668104  0.99998033  0.33396219
  -0.00002296  0.33333022  0.33394525
   0.33333771  0.33332010  0.33392489
   0.66668582  0.33334557  0.33396149
   1.00000158  0.66666476  0.33393021
   0.33333343  0.66667378  0.33393562
   0.66670564  0.66667975  0.33393529
   1.00002004  1.00001374  0.66718140
   0.33332979  0.99999505  0.66721016
   0.66668111  0.99999620  0.66720855
  -0.00000322  0.33330064  0.66720532
   0.33331666  0.33332025  0.66718069
   0.66667069  0.33333513  0.66719545
   0.00001048  0.66665706  0.66718502
   0.33333544  0.66666543  0.66720219
   0.66663819  0.66667247  0.66720359
   0.16663140  0.16666683  0.17282755
   0.50006904  0.16668640  0.17277453
   0.83336885  0.16662932  0.17285738
   0.16662934  0.50001963  0.17285512
   0.49998966  0.50005534  0.17281726
   0.83332029  0.50001667  0.17283467
   0.16660676  0.83332371  0.17284045
   0.50007600  0.83332582  0.17277233
   0.83329776  0.83335481  0.17282203
   0.16670718  0.16670777  0.50613468
   0.50002843  0.16665470  0.50616062
   0.83332231  0.16662246  0.50617769
   0.16662679  0.50000731  0.50617375
   0.49997414  0.50002190  0.50617469
   0.83332124  0.50000511  0.50614638
   0.16663364  0.83331585  0.50613708
   0.50001132  0.83330478  0.50618576
   0.83334086  0.83336924  0.50611731
   0.16663114  0.16665384  0.83943037
   0.50000530  0.16666365  0.83941315
   0.83334231  0.16669339  0.83942442
   0.16662755  0.50002960  0.83947819
   0.49991641  0.50001277  0.83946502
   0.83332646  0.49993998  0.83949721
   0.16668651  0.83335229  0.83942724
   0.50001535  0.83334683  0.83943905
   0.83330270  0.83336113  0.83942439
   1.00005338  0.16662724  0.16137230
   0.16669913 -0.00005251  0.16122300
   0.16669350  0.16669834  0.99051335
   0.33330205  0.16662188  0.16129393
   0.50000057 -0.00001662  0.16135415
   0.50000245  0.16673367  0.99040596
   0.66665598  0.16672377  0.16132352
   0.83339106  0.00006470  0.16134643
   0.83329783  0.16668568  0.99047800
  -0.00001175  0.50000068  0.16123059
   0.16663581  0.33337802  0.16127890
   0.16667158  0.49999309  0.99051747
   0.33327828  0.50002059  0.16134469
   0.50001103  0.33338120  0.16124569
   0.49989411  0.49999407  0.99036976
   0.66661147  0.49998184  0.16123455
   0.83329250  0.33331988  0.16128180
   0.83326043  0.49996564  0.99047199
   0.00006189  0.83327810  0.16118912
   0.16667054  0.66657179  0.16128089
   0.16659677  0.83325027  0.99055569
   0.33337878  0.83339085  0.16129608
   0.49996106  0.66664340  0.16127746
   0.49999641  0.83333819  0.99046734
   0.66664232  0.83327986  0.16124720
   0.83334713  0.66670162  0.16128560
   0.83332072  0.83337031  0.99051046
   0.00000063  0.16665769  0.49468165
   0.16674531  0.00014364  0.49470501
   0.16661077  0.16660185  0.32391263
   0.33336452  0.16668257  0.49462524
   0.49997127 -0.00005023  0.49465538
   0.50002976  0.16657529  0.32381068
   0.66673163  0.16676627  0.49457168
   0.83330525  0.00007911  0.49455448
   0.83335387  0.16662626  0.32385543
   0.00007691  0.50000200  0.49455180
   0.16671634  0.33339875  0.49457031
   0.16669023  0.50001663  0.32387838
   0.33328070  0.50002052  0.49464956
   0.50001937  0.33335729  0.49446559
   0.50002820  0.50006829  0.32395090
   0.66665367  0.50002261  0.49473064
   0.83332426  0.33335622  0.49456477
   0.83337340  0.50005943  0.32391331
  -0.00005689  0.83332841  0.49468676
   0.16667631  0.66672541  0.49459865
   0.16670482  0.83335908  0.32397208
   0.33330821  0.83337663  0.49459928
   0.50003547  0.66662009  0.49457345
   0.50003946  0.83327112  0.32389383
   0.66670989  0.83326599  0.49459736
   0.83335959  0.66670184  0.49453236
   0.83326752  0.83334850  0.32389981
   1.00002449  0.16671177  0.82787633
   0.16664449  1.00004206  0.82795735
   0.16666363  0.16670034  0.65716747
   0.33335081  0.16664621  0.82787018
   0.50005691  1.00000811  0.82783557
   0.49994734  0.16663844  0.65711251
   0.66663059  0.16673754  0.82781127
   0.83335353  0.99998436  0.82787597
   0.83336785  0.16677906  0.65719694
   0.00002380  0.49998676  0.82785038
   0.16668665  0.33336358  0.82784805
   0.16671689  0.49998675  0.65722592
   0.33338507  0.49997150  0.82788747
   0.49983459  0.33334498  0.82789878
   0.49992319  0.50005207  0.65719240
   0.66666103  0.50000719  0.82795728
   0.83330988  0.33324074  0.82782888
   0.83324328  0.49998930  0.65720319
   0.99999770  0.83332297  0.82777661
   0.16658536  0.66665124  0.82789713
   0.16667094  0.83329506  0.65715170
   0.33327879  0.83334616  0.82789813
   0.50005001  0.66666320  0.82791554
   0.49994344  0.83332289  0.65707792
   0.66660933  0.83326888  0.82794690
   0.83334207  0.66657770  0.82785236
   0.83327409  0.83333687  0.65726729
BTO                                     
           1
    11.900920    0.002089   -0.000561
     0.000000   11.902371   -0.001527
     0.000000   -0.000000   12.193097
   Ba   Ti   O 
  27  27  81
Direct configuration=     3
   1.00003438 -0.00002389  0.00056752
   0.33333337  0.00001554  0.00048883
   0.66661101  0.00004636  0.00053630
  -0.00002339  0.33333011  0.00052913
   0.33328821  0.33337457  0.00053637
   0.66665142  0.33332165  0.00053809
  -0.00001448  0.66664058  0.00055851
   0.33333832  0.66669633  0.00050425
   0.66667095  0.66664009  0.00057796
   1.00001273  1.00003326  0.33393775
   0.33326890  0.99999948  0.33396820
   0.66667339  0.99996256  0.33399787
  -0.00003710  0.33331565  0.33397089
   0.33332007  0.33331250  0.33391699
   0.66671266  0.33337057  0.33395619
   0.99999197  0.66665891  0.33394051
   0.33334410  0.66664962  0.33396429
   0.66676867  0.66670674  0.33395645
   1.00003652  1.00002071  0.66715176
   0.33332681  1.00000962  0.66722518
   0.66670709  1.00000150  0.66720538
   0.00000014  0.33328011  0.66724105
   0.33331156  0.33328666  0.66716242
   0.66665402  0.33332049  0.66719581
   0.00003822  0.66666934  0.66718902
   0.33334295  0.66668280  0.66723761
   0.66662007  0.66669193  0.66719092
   0.16656705  0.16666616  0.17283279
   0.50016934  0.16670120  0.17267329
   0.83337871  0.16659585  0.17289930
   0.16655027  0.50006760  0.17289592
   0.49998691  0.50011431  0.17280406
   0.83327907  0.50001532  0.17285600
   0.16653341  0.83328683  0.17289473
   0.50011558  0.83328507  0.17279057
   0.83327766  0.83336078  0.17278999
   0.16676882  0.16674669  0.50611567
   0.50006561  0.16663257  0.50617084
   0.83328689  0.16654052  0.50619474
   0.16656833  0.50005847  0.50616890
   0.49996271  0.50004520  0.50622526
   0.83337329  0.50002557  0.50618032
   0.16662557  0.83325482  0.50613094
   0.49999314  0.83329096  0.50629285
   0.83336671  0.83337578  0.50606717
   0.16661269  0.16662327  0.83946517
   0.50001267  0.16671296  0.83944773
   0.83331979  0.16672360  0.83941230
   0.16661388  0.50004163  0.83952414
   0.49982289  0.50000945  0.83950510
   0.83330618  0.49987618  0.83959899
   0.16673783  0.83338204  0.83944153
   0.50005383  0.83332914  0.83945279
   0.83322950  0.83338627  0.83943906
   1.00007939  0.16659081  0.16148630
   0.16670055 -0.00004678  0.16108494
   0.16668661  0.16683755  0.99049598
   0.33335141  0.16658334  0.16128090
   0.49999826 -0.00003926  0.16132505
   0.49998412  0.16680417  0.99031617
   0.66658565  0.16677975  0.16127513
   0.83341402  0.00016969  0.16128221
   0.83327809  0.16672998  0.99046565
  -0.00003269  0.50000670  0.16115174
   0.16660752  0.33337161  0.16125157
   0.16660497  0.49991398  0.99056291
   0.33322350  0.50005178  0.16134739
   0.50004856  0.33343197  0.16118587
   0.49988403  0.49998164  0.99022896
   0.66657185  0.49999978  0.16110047
   0.83333771  0.33330020  0.16132561
   0.83315771  0.49997407  0.99044564
   0.00010879  0.83317458  0.16101298
   0.16666922  0.66651133  0.16125106
   0.16649886  0.83317590  0.99059114
   0.33341339  0.83347575  0.16133841
   0.49992258  0.66665270  0.16131077
   0.50006219  0.83334632  0.99042240
   0.66667485  0.83317809  0.16128571
   0.83335592  0.66674338  0.16124223
   0.83331738  0.83338708  0.99057235
  -0.00004953  0.16667872  0.49470548
   0.16688483  0.00024931  0.49477454
   0.16655603  0.16649916  0.32400987
   0.33345965  0.16666224  0.49461606
   0.49988633 -0.00010978  0.49465739
   0.50003667  0.16654978  0.32367896
   0.66680117  0.16680065  0.49464117
   0.83329008  0.00017139  0.49457334
   0.83344967  0.16663270  0.32385974
   0.00009302  0.50008454  0.49446615
   0.16676931  0.33343648  0.49449601
   0.16677674  0.50004194  0.32386739
   0.33321397  0.49997488  0.49462604
   0.50010216  0.33335072  0.49436068
   0.50003828  0.50015914  0.32400781
   0.66666816  0.50010391  0.49483341
   0.83335434  0.33335979  0.49441345
   0.83341161  0.50016742  0.32396392
  -0.00015636  0.83327879  0.49478714
   0.16680150  0.66681810  0.49463908
   0.16673363  0.83346691  0.32404235
   0.33326958  0.83337044  0.49450783
   0.50005793  0.66660660  0.49448508
   0.50008201  0.83321291  0.32384764
   0.66674848  0.83322424  0.49451484
   0.83338619  0.66675286  0.49448001
   0.83320082  0.83335960  0.32398235
   1.00011973  0.16676399  0.82786247
   0.16666866  1.00008397  0.82803399
   0.16667831  0.16680646  0.65713149
   0.33333531  0.16670346  0.82791008
   0.50006486  1.00002803  0.82769436
   0.49989497  0.16653618  0.65698628
   0.66658852  0.16689652  0.82766308
   0.83344124  0.99999560  0.82786481
   0.83350462  0.16694130  0.65716836
  -0.00002424  0.49996332  0.82777456
   0.16674950  0.33341756  0.82776545
   0.16668352  0.49995245  0.65721264
   0.33339913  0.50001194  0.82803633
   0.49968071  0.33340715  0.82779733
   0.49981618  0.50013768  0.65723467
   0.66667203  0.49988564  0.82799875
   0.83324842  0.33317238  0.82780004
   0.83312763  0.50001200  0.65722032
   0.99998645  0.83313649  0.82764324
   0.16649052  0.66668438  0.82785132
   0.16668161  0.83328779  0.65717526
   0.33327414  0.83323940  0.82789828
   0.50013949  0.66669580  0.82789701
   0.49991996  0.83335155  0.65700145
   0.66656476  0.83319689  0.82798786
   0.83343613  0.66646026  0.82779874
   0.83322599  0.83331382  0.65735125
BTO                                     
           1
    11.900352    0.003541   -0.001008
     0.000000   11.902298   -0.002458
     0.000000   -0.000000   12.193140
   Ba   Ti   O 
  27  27  81
Direct configuration=     4
   1.00007486 -0.00006327  0.00060016
   0.33335286  0.00001178  0.00048228
   0.66659164  0.00008234  0.00055827
  -0.00004823  0.33329901  0.00056718
   0.33326138  0.33342289  0.00058089
   0.66667640  0.33332607  0.00054336
  -0.00002893  0.66661300  0.00058773
   0.33334914  0.66668621  0.00049681
   0.66666642  0.66660572  0.00060265
   0.99998553  1.00004693  0.33394156
   0.33320764  1.00000245  0.33398209
   0.66666133  0.99997398  0.33400875
  -0.00007079  0.33328839  0.33400718
   0.33328989  0.33332266  0.33389854
   0.66672554  0.33341397  0.33396948
   0.99998455  0.66665086  0.33396915
   0.33336166  0.66660438  0.33396730
   0.66678940  0.66675690  0.33398886
   1.00007292  1.00005263  0.66714058
   0.33332830  1.00003316  0.66723094
   0.66673045  1.00004928  0.66719374
  -0.00000634  0.33329923  0.66724565
   0.33332771  0.33327220  0.66717458
   0.66664206  0.33332856  0.66719017
   0.00006308  0.66668262  0.66718674
   0.33335806  0.66669349  0.66723221
   0.66663750  0.66669589  0.66717881
   0.16648235  0.16668278  0.17286171
   0.50025904  0.16664858  0.17257432
   0.83334828  0.16656675  0.17295973
   0.16651840  0.50013060  0.17298287
   0.49993117  0.50019907  0.17284478
   0.83326173  0.50003281  0.17287808
   0.16644075  0.83321480  0.17297021
   0.50013869  0.83325999  0.17279920
   0.83325719  0.83335731  0.17275221
   0.16684471  0.16678080  0.50613621
   0.50011712  0.16657662  0.50619945
   0.83326754  0.16647108  0.50625998
   0.16645605  0.50007315  0.50619244
   0.49993114  0.50010395  0.50625600
   0.83343038  0.50005818  0.50622897
   0.16657649  0.83313761  0.50615147
   0.49996722  0.83325703  0.50641224
   0.83337297  0.83340255  0.50603317
   0.16657184  0.16658603  0.83946361
   0.50005407  0.16677379  0.83947848
   0.83326205  0.16676522  0.83932696
   0.16663027  0.50005124  0.83957182
   0.49976388  0.49998070  0.83958395
   0.83326429  0.49984170  0.83971826
   0.16680200  0.83336988  0.83941332
   0.50007585  0.83328727  0.83947080
   0.83316413  0.83339962  0.83949788
   1.00001011  0.16656534  0.16151578
   0.16674316  0.00000614  0.16100985
   0.16669180  0.16693123  0.99039524
   0.33346575  0.16655899  0.16125983
   0.49990449 -0.00011763  0.16123258
   0.49987088  0.16682453  0.99014754
   0.66658137  0.16683581  0.16124648
   0.83345901  0.00030870  0.16118695
   0.83325030  0.16673545  0.99045334
  -0.00009783  0.49988631  0.16101558
   0.16655239  0.33340758  0.16128875
   0.16658584  0.49978090  0.99059372
   0.33312217  0.50008653  0.16131792
   0.50008585  0.33350744  0.16107577
   0.49990255  0.49996961  0.99007283
   0.66644688  0.49999433  0.16097565
   0.83342785  0.33330307  0.16137694
   0.83311634  0.49993078  0.99036775
   0.00018932  0.83305945  0.16080321
   0.16668250  0.66647525  0.16130072
   0.16639161  0.83306263  0.99060663
   0.33343860  0.83360896  0.16135840
   0.49989932  0.66655932  0.16143846
   0.50024280  0.83329979  0.99034346
   0.66679530  0.83309350  0.16132263
   0.83341611  0.66680104  0.16126344
   0.83320641  0.83342149  0.99063175
  -0.00004155  0.16674759  0.49470183
   0.16701469  0.00030484  0.49485739
   0.16654505  0.16648290  0.32411121
   0.33357717  0.16669278  0.49462029
   0.49983047 -0.00013445  0.49465089
   0.50002653  0.16657972  0.32350345
   0.66679121  0.16678319  0.49469560
   0.83326870  0.00018094  0.49460765
   0.83348131  0.16660557  0.32392301
   0.00012893  0.50015735  0.49440737
   0.16681362  0.33353266  0.49443364
   0.16680598  0.50010855  0.32379565
   0.33315111  0.49996701  0.49460220
   0.50012241  0.33328346  0.49422525
   0.50005701  0.50024563  0.32401304
   0.66669777  0.50021766  0.49488599
   0.83331503  0.33344212  0.49427391
   0.83336739  0.50023753  0.32407414
  -0.00023892  0.83315994  0.49492629
   0.16696001  0.66691263  0.49461288
   0.16669874  0.83347600  0.32403052
   0.33325374  0.83339928  0.49447186
   0.50007503  0.66658815  0.49429722
   0.50013613  0.83315150  0.32378300
   0.66683890  0.83309174  0.49432948
   0.83342126  0.66662112  0.49443521
   0.83316640  0.83342294  0.32403192
   1.00029959  0.16681019  0.82790396
   0.16672401  1.00013578  0.82803987
   0.16671120  0.16691761  0.65710381
   0.33336709  0.16678711  0.82790596
   0.50009512  0.99999463  0.82743988
   0.49985846  0.16644373  0.65685103
   0.66652134  0.16700653  0.82742305
   0.83357115  1.00006571  0.82783995
   0.83358725  0.16712660  0.65708845
  -0.00012512  0.49993350  0.82771772
   0.16678233  0.33343237  0.82762533
   0.16664815  0.49990209  0.65717364
   0.33341343  0.50000420  0.82820266
   0.49958690  0.33343791  0.82767564
   0.49974703  0.50020775  0.65733548
   0.66671042  0.49983895  0.82808551
   0.83316613  0.33304366  0.82777856
   0.83309963  0.49998803  0.65722988
   0.99998887  0.83296845  0.82743680
   0.16643858  0.66675639  0.82777563
   0.16678777  0.83326847  0.65717252
   0.33314993  0.83310972  0.82798923
   0.50023653  0.66670647  0.82783898
   0.49995317  0.83332770  0.65689710
   0.66645683  0.83317731  0.82802700
   0.83340333  0.66628908  0.82768802
   0.83315228  0.83328430  0.65737884
BTO                                     
           1
    11.899995    0.005026   -0.001155
     0.000000   11.902331   -0.003314
     0.000000   -0.000000   12.193058
   Ba   Ti   O 
  27  27  81
Direct configuration=     5
   1.00013266 -0.00010167  0.00065541
   0.33340256  0.00000850  0.00047545
   0.66655748  0.00012735  0.00058278
  -0.00009319  0.33328843  0.00062728
   0.33321368  0.33346663  0.00058588
   0.66669494  0.33332691  0.00053844
  -0.00002478  0.66657852  0.00060855
   0.33333484  0.66664338  0.00049070
   0.66663364  0.66656055  0.00062346
   0.99996217  1.00007785  0.33397519
   0.33312144  1.00002004  0.33400450
   0.66667154  0.99996720  0.33400052
  -0.00011607  0.33325412  0.33403234
   0.33325047  0.33334814  0.33386428
   0.66673655  0.33347571  0.33398974
   0.99998128  0.66663621  0.33402630
   0.33338636  0.66655698  0.33397770
   0.66680917  0.66678831  0.33403315
   1.00011697  1.00007329  0.66712678
   0.33334600  1.00006008  0.66722739
   0.66678655  1.00009082  0.66721552
  -0.00001166  0.33330312  0.66724325
   0.33332179  0.33326626  0.66718248
   0.66660658  0.33331462  0.66717960
   0.00011121  0.66675108  0.66718912
   0.33336489  0.66667878  0.66724040
   0.66665516  0.66665447  0.66718413
   0.16644489  0.16668962  0.17291135
   0.50032173  0.16664489  0.17250370
   0.83332021  0.16654053  0.17302616
   0.16651248  0.50014370  0.17312819
   0.49985830  0.50028730  0.17283377
   0.83327621  0.50006127  0.17288171
   0.16633297  0.83309176  0.17303299
   0.50013052  0.83314797  0.17286216
   0.83322336  0.83339949  0.17268971
   0.16688381  0.16680981  0.50616730
   0.50017630  0.16651670  0.50627077
   0.83324156  0.16643674  0.50634531
   0.16633370  0.50007024  0.50623723
   0.49990793  0.50017443  0.50629350
   0.83351928  0.50009135  0.50624195
   0.16652383  0.83302927  0.50620371
   0.49993586  0.83322561  0.50656824
   0.83336999  0.83345998  0.50602860
   0.16650996  0.16659287  0.83947887
   0.50012343  0.16691020  0.83951940
   0.83321956  0.16679264  0.83924468
   0.16667967  0.50004243  0.83963161
   0.49969662  0.49995608  0.83965433
   0.83321014  0.49984702  0.83983423
   0.16689466  0.83340982  0.83940744
   0.50011683  0.83326961  0.83952970
   0.83305914  0.83335819  0.83960294
   0.99996751  0.16658152  0.16155997
   0.16685751  0.00002272  0.16085823
   0.16665126  0.16687880  0.99033518
   0.33372659  0.16646489  0.16123854
   0.49979129 -0.00018545  0.16109349
   0.49979838  0.16690536  0.99007518
   0.66654377  0.16689022  0.16118124
   0.83360760  0.00029991  0.16107820
   0.83323132  0.16670719  0.99055565
  -0.00014771  0.49975023  0.16088036
   0.16650805  0.33345133  0.16126694
   0.16661284  0.49954043  0.99069219
   0.33306987  0.50018456  0.16132180
   0.50013872  0.33359237  0.16099038
   0.50000836  0.49994823  0.98987257
   0.66632639  0.50003807  0.16080844
   0.83356029  0.33324459  0.16145456
   0.83300486  0.49995369  0.99035401
   0.00029875  0.83305008  0.16046868
   0.16664273  0.66634718  0.16137579
   0.16631176  0.83293355  0.99058350
   0.33351290  0.83374288  0.16142899
   0.49997307  0.66652620  0.16157223
   0.50038205  0.83327849  0.99022700
   0.66689128  0.83292309  0.16130929
   0.83337683  0.66677087  0.16123501
   0.83312004  0.83346417  0.99068745
  -0.00010311  0.16684289  0.49475359
   0.16711945  0.00032062  0.49495623
   0.16654717  0.16632984  0.32421774
   0.33375391  0.16672760  0.49460785
   0.49978489 -0.00028415  0.49463934
   0.50006253  0.16668314  0.32328244
   0.66673705  0.16670906  0.49483695
   0.83323578  0.00018214  0.49459236
   0.83355533  0.16660146  0.32393738
   0.00011321  0.50025222  0.49427975
   0.16688242  0.33368629  0.49437616
   0.16672124  0.50026901  0.32376427
   0.33310258  0.49990299  0.49462586
   0.50022222  0.33316480  0.49412845
   0.50008405  0.50034447  0.32404237
   0.66682039  0.50040460  0.49489904
   0.83327933  0.33351282  0.49402620
   0.83328520  0.50025814  0.32418061
  -0.00026841  0.83294635  0.49510475
   0.16713190  0.66706676  0.49463112
   0.16662351  0.83351087  0.32394488
   0.33324688  0.83343005  0.49434383
   0.50012764  0.66656042  0.49421058
   0.50017496  0.83314976  0.32375062
   0.66689764  0.83298904  0.49416484
   0.83349701  0.66647906  0.49440313
   0.83310576  0.83341655  0.32407049
   1.00051941  0.16685269  0.82794823
   0.16678167  1.00018356  0.82805170
   0.16670977  0.16702294  0.65704074
   0.33340508  0.16689901  0.82792553
   0.50009179  0.99992000  0.82717862
   0.49973778  0.16641678  0.65668027
   0.66652119  0.16709425  0.82723369
   0.83370678  1.00015782  0.82772709
   0.83358334  0.16725879  0.65700908
  -0.00026399  0.49986291  0.82772544
   0.16688396  0.33345804  0.82756968
   0.16662927  0.49994653  0.65714394
   0.33341046  0.49997125  0.82826177
   0.49948747  0.33347043  0.82764711
   0.49974486  0.50031189  0.65742122
   0.66679799  0.49978940  0.82827691
   0.83302808  0.33304318  0.82782437
   0.83312127  0.49998923  0.65718990
   1.00001134  0.83282403  0.82731731
   0.16639468  0.66684382  0.82775536
   0.16685691  0.83323738  0.65718782
   0.33302685  0.83292545  0.82799875
   0.50034818  0.66672154  0.82786679
   0.49997747  0.83335006  0.65677040
   0.66637492  0.83309814  0.82803456
   0.83331767  0.66610395  0.82760461
   0.83308738  0.83327671  0.65737202
