 vasp.6.3.1 04May22 (build Aug 02 2022 18:41:05) complex                        
  
 executed on             Noctua-2 date 2022.11.01  00:26:50
 running on  192 total cores
 distrk:  each k-point on  192 cores,    1 groups
 distr:  one band on NCORE=   4 cores,   48 groups


--------------------------------------------------------------------------------------------------------


 INCAR:
   ALGO = Normal
   IALGO = 48
   GGA = PS
   ADDGRID = .TRUE.
   PREC = Accurate
   LREAL = .FALSE.
   ENCUT = 580
   NBLOCK = 1
   KBLOCK = 500
   LEPSILON = .TRUE.
   NELM = 60
   NELMIN = 2
   NSW = 0
   EDIFF = 1e-05
   EDIFFG = -0.01
   IBRION = -1
   ISIF = 2
   ISMEAR = 0
   ISPIN = 1
   LDAU = .FALSE.
   LDAUTYPE = 1
   LDAUL = -1 -1 -1  2
   LDAUU = 0 0 0 7.5
   LDAUJ = 0 0 0 0.98
   LDAUPRINT = 2
   LMAXMIX = 4
   LORBMOM = .TRUE.
   SIGMA = 0.05
   LASPH = .TRUE.
   POTIM = 0.5
   NCORE = 4 -SQRT(28)
   NSIM = 4
   LORBIT = 11
   LWAVE = .FALSE.
   LPLANE = .TRUE.
   LSCALU = .FALSE.
   LCHARG = .TRUE.
   ISYM = 0
   LSCALAPACK = .FALSE.

 POTCAR:    PAW_PBE Ba_sv 06Sep2000               
 POTCAR:    PAW_PBE Ti_sv 26Sep2005               
 POTCAR:    PAW_PBE O 08Apr2002                   
 -----------------------------------------------------------------------------
|                                                                             |
|           W    W    AA    RRRRR   N    N  II  N    N   GGGG   !!!           |
|           W    W   A  A   R    R  NN   N  II  NN   N  G    G  !!!           |
|           W    W  A    A  R    R  N N  N  II  N N  N  G       !!!           |
|           W WW W  AAAAAA  RRRRR   N  N N  II  N  N N  G  GGG   !            |
|           WW  WW  A    A  R   R   N   NN  II  N   NN  G    G                |
|           W    W  A    A  R    R  N    N  II  N    N   GGGG   !!!           |
|                                                                             |
|     For optimal performance we recommend to set                             |
|       NCORE = 2 up to number-of-cores-per-socket                            |
|     NCORE specifies how many cores store one orbital (NPAR=cpu/NCORE).      |
|     This setting can greatly improve the performance of VASP for DFT.       |
|     The default, NCORE=1 might be grossly inefficient on modern             |
|     multi-core architectures or massively parallel machines. Do your        |
|     own testing! More info at https://www.vasp.at/wiki/index.php/NCORE      |
|     Unfortunately you need to use the default for GW and RPA                |
|     calculations (for HF NCORE is supported but not extensively tested      |
|     yet).                                                                   |
|                                                                             |
 -----------------------------------------------------------------------------

 POTCAR:    PAW_PBE Ba_sv 06Sep2000               
   SHA256 =  db99e82e473f9273fc04f241d4a23dc413358649e2d1724098d22351b75b003b Ba_sv/POTCAR          
   COPYR  = (c) Copyright 06Sep2000 Georg Kresse                                                    
   COPYR  = This file is part of the software VASP. Any use, copying, and all other rights are regul
   COPYR  = If you do not have a valid VASP license, you may not use, copy or distribute this file. 
   VRHFIN =Ba: 5s5p6s                                                                               
   LEXCH  = PE                                                                                      
   EATOM  =   700.8560 eV,   51.5115 Ry                                                             
                                                                                                    
   TITEL  = PAW_PBE Ba_sv 06Sep2000                                                                 
   LULTRA =        F    use ultrasoft PP ?                                                          
   IUNSCR =        1    unscreen: 0-lin 1-nonlin 2-no                                               
   RPACOR =    2.400    partial core radius                                                         
   POMASS =  137.327; ZVAL   =   10.000    mass and valenz                                          
   RCORE  =    2.800    outmost cutoff radius                                                       
   RWIGS  =    3.740; RWIGS  =    1.979    wigner-seitz radius (au A)                               
   ENMAX  =  187.181; ENMIN  =  140.386 eV                                                          
   RCLOC  =    2.516    cutoff for local pot                                                        
   LCOR   =        T    correct aug charges                                                         
   LPAW   =        T    paw PP                                                                      
   EAUG   =  351.165                                                                                
   DEXC   =    0.000                                                                                
   RMAX   =    2.865    core radius for proj-oper                                                   
   RAUG   =    1.300    factor for augmentation sphere                                              
   RDEP   =    2.976    radius for radial grids                                                     
   RDEPT  =    2.289    core radius for aug-charge                                                  
                                                                                                    
   Atomic configuration                                                                             
   13 entries                                                                                       
     n  l   j            E        occ.                                                              
     1  0  0.50    -37249.5946   2.0000                                                             
     2  0  0.50     -5887.1925   2.0000                                                             
     2  1  1.50     -5278.3977   6.0000                                                             
     3  0  0.50     -1242.7293   2.0000                                                             
     3  1  1.50     -1047.6609   6.0000                                                             
     3  2  2.50      -764.6158  10.0000                                                             
     4  0  0.50      -243.8228   2.0000                                                             
     4  1  1.50      -180.9218   6.0000                                                             
     4  2  2.50       -89.6477  10.0000                                                             
     5  0  0.50       -33.6549   2.0000                                                             
     6  0  0.50        -3.2247   1.9900                                                             
     5  1  1.50       -18.7193   6.0000                                                             
     5  2  2.50        -2.0115   0.0100                                                             
   Description                                                                                      
     l       E           TYP  RCUT    TYP  RCUT                                                     
     0    -33.6549039     23  2.800                                                                 
     0     -3.2246942     23  2.800                                                                 
     1    -18.7193050     23  2.700                                                                 
     1     27.2116520     23  2.700                                                                 
     2     -2.0115002     23  2.700                                                                 
     2      0.3057420     23  2.700                                                                 
  local pseudopotential read in
  partial core-charges read in
  partial kinetic energy density read in
  atomic valenz-charges read in
  non local Contribution for L=           0  read in
    real space projection operators read in
  non local Contribution for L=           0  read in
    real space projection operators read in
  non local Contribution for L=           1  read in
    real space projection operators read in
  non local Contribution for L=           1  read in
    real space projection operators read in
  non local Contribution for L=           2  read in
    real space projection operators read in
  non local Contribution for L=           2  read in
    real space projection operators read in
    PAW grid and wavefunctions read in
 
   number of l-projection  operators is LMAX  =           6
   number of lm-projection operators is LMMAX =          18
 
 POTCAR:    PAW_PBE Ti_sv 26Sep2005               
   SHA256 =  4d747badb5a5ea28d858fbac70885b3f8929d6fd9e5b0dbe1ecb9878dc164da1 Ti_sv/POTCAR          
   COPYR  = (c) Copyright 26Sep2005 Georg Kresse                                                    
   COPYR  = This file is part of the software VASP. Any use, copying, and all other rights are regul
   COPYR  = If you do not have a valid VASP license, you may not use, copy or distribute this file. 
   VRHFIN =Ti: 3p4s3d                                                                               
   LEXCH  = PE                                                                                      
   EATOM  =  1588.0892 eV,  116.7213 Ry                                                             
                                                                                                    
   TITEL  = PAW_PBE Ti_sv 26Sep2005                                                                 
   LULTRA =        F    use ultrasoft PP ?                                                          
   IUNSCR =        1    unscreen: 0-lin 1-nonlin 2-no                                               
   RPACOR =    2.000    partial core radius                                                         
   POMASS =   47.880; ZVAL   =   12.000    mass and valenz                                          
   RCORE  =    2.300    outmost cutoff radius                                                       
   RWIGS  =    2.300; RWIGS  =    1.217    wigner-seitz radius (au A)                               
   ENMAX  =  274.610; ENMIN  =  205.957 eV                                                          
   ICORE  =        3    local potential                                                             
   LCOR   =        T    correct aug charges                                                         
   LPAW   =        T    paw PP                                                                      
   EAUG   =  482.848                                                                                
   RMAX   =    2.348    core radius for proj-oper                                                   
   RAUG   =    1.300    factor for augmentation sphere                                              
   RDEP   =    2.381    radius for radial grids                                                     
   RDEPT  =    1.930    core radius for aug-charge                                                  
                                                                                                    
   Atomic configuration                                                                             
    8 entries                                                                                       
     n  l   j            E        occ.                                                              
     1  0  0.50     -4865.3608   2.0000                                                             
     2  0  0.50      -533.1368   2.0000                                                             
     2  1  1.50      -440.5031   6.0000                                                             
     3  0  0.50       -59.3186   2.0000                                                             
     4  0  0.50        -3.7291   1.0000                                                             
     3  1  1.50       -35.7012   6.0000                                                             
     3  2  2.50        -1.9157   3.0000                                                             
     4  3  2.50        -1.3606   0.0000                                                             
   Description                                                                                      
     l       E           TYP  RCUT    TYP  RCUT                                                     
     0    -59.3185931     23  1.800                                                                 
     0     -3.7290822     23  2.300                                                                 
     1    -35.7012045     23  2.300                                                                 
     1     -1.3605826     23  2.300                                                                 
     2     -1.9156920     23  2.300                                                                 
     2     -0.0236318     23  2.300                                                                 
     3     -1.3605826     23  2.300                                                                 
  local pseudopotential read in
  partial core-charges read in
  partial kinetic energy density read in
  atomic valenz-charges read in
  non local Contribution for L=           0  read in
    real space projection operators read in
  non local Contribution for L=           0  read in
    real space projection operators read in
  non local Contribution for L=           1  read in
    real space projection operators read in
  non local Contribution for L=           1  read in
    real space projection operators read in
  non local Contribution for L=           2  read in
    real space projection operators read in
  non local Contribution for L=           2  read in
    real space projection operators read in
    PAW grid and wavefunctions read in
 
   number of l-projection  operators is LMAX  =           6
   number of lm-projection operators is LMMAX =          18
 
 POTCAR:    PAW_PBE O 08Apr2002                   
   SHA256 =  818f92134a0a090dccd8ba1447fa70422a3b330e708bb4f08108d8ae51209ddf O/POTCAR              
   COPYR  = (c) Copyright 08Apr2002 Georg Kresse                                                    
   COPYR  = This file is part of the software VASP. Any use, copying, and all other rights are regul
   COPYR  = If you do not have a valid VASP license, you may not use, copy or distribute this file. 
   VRHFIN =O: s2p4                                                                                  
   LEXCH  = PE                                                                                      
   EATOM  =   432.3788 eV,   31.7789 Ry                                                             
                                                                                                    
   TITEL  = PAW_PBE O 08Apr2002                                                                     
   LULTRA =        F    use ultrasoft PP ?                                                          
   IUNSCR =        1    unscreen: 0-lin 1-nonlin 2-no                                               
   RPACOR =    1.200    partial core radius                                                         
   POMASS =   16.000; ZVAL   =    6.000    mass and valenz                                          
   RCORE  =    1.520    outmost cutoff radius                                                       
   RWIGS  =    1.550; RWIGS  =    0.820    wigner-seitz radius (au A)                               
   ENMAX  =  400.000; ENMIN  =  300.000 eV                                                          
   ICORE  =        2    local potential                                                             
   LCOR   =        T    correct aug charges                                                         
   LPAW   =        T    paw PP                                                                      
   EAUG   =  605.392                                                                                
   DEXC   =    0.000                                                                                
   RMAX   =    1.553    core radius for proj-oper                                                   
   RAUG   =    1.300    factor for augmentation sphere                                              
   RDEP   =    1.550    radius for radial grids                                                     
   RDEPT  =    1.329    core radius for aug-charge                                                  
                                                                                                    
   Atomic configuration                                                                             
    4 entries                                                                                       
     n  l   j            E        occ.                                                              
     1  0  0.50      -514.6923   2.0000                                                             
     2  0  0.50       -23.9615   2.0000                                                             
     2  1  0.50        -9.0305   4.0000                                                             
     3  2  1.50        -9.5241   0.0000                                                             
   Description                                                                                      
     l       E           TYP  RCUT    TYP  RCUT                                                     
     0    -23.9615318     23  1.200                                                                 
     0     -9.5240782     23  1.200                                                                 
     1     -9.0304911     23  1.520                                                                 
     1      8.1634956     23  1.520                                                                 
     2     -9.5240782      7  1.500                                                                 
  local pseudopotential read in
  partial core-charges read in
  partial kinetic energy density read in
  kinetic energy density of atom read in
  atomic valenz-charges read in
  non local Contribution for L=           0  read in
    real space projection operators read in
  non local Contribution for L=           0  read in
    real space projection operators read in
  non local Contribution for L=           1  read in
    real space projection operators read in
  non local Contribution for L=           1  read in
    real space projection operators read in
    PAW grid and wavefunctions read in
 
   number of l-projection  operators is LMAX  =           4
   number of lm-projection operators is LMMAX =           8
 
 -----------------------------------------------------------------------------
|                                                                             |
|               ----> ADVICE to this user running VASP <----                  |
|                                                                             |
|     You have a (more or less) 'large supercell' and for larger cells it     |
|     might be more efficient to use real-space projection operators.         |
|     Therefore, try LREAL= Auto in the INCAR file.                           |
|     Mind: For very accurate calculation, you might also keep the            |
|     reciprocal projection scheme (i.e. LREAL=.FALSE.).                      |
|                                                                             |
 -----------------------------------------------------------------------------

 -----------------------------------------------------------------------------
|                                                                             |
|               ----> ADVICE to this user running VASP <----                  |
|                                                                             |
|     You enforced a specific xc type in the INCAR file but a different       |
|     type was found in the POTCAR file.                                      |
|     I HOPE YOU KNOW WHAT YOU ARE DOING!                                     |
|                                                                             |
 -----------------------------------------------------------------------------

  PAW_PBE Ba_sv 06Sep2000               :
 energy of atom  1       EATOM= -700.8560
 kinetic energy error for atom=    0.0004 (will be added to EATOM!!)
  PAW_PBE Ti_sv 26Sep2005               :
 energy of atom  2       EATOM=-1588.0892
 kinetic energy error for atom=    0.0031 (will be added to EATOM!!)
  PAW_PBE O 08Apr2002                   :
 energy of atom  3       EATOM= -432.3788
 kinetic energy error for atom=    0.0181 (will be added to EATOM!!)
 
 
 POSCAR: #BaTiO3
  positions in direct lattice
  velocities in cartesian coordinates
 exchange correlation table for  LEXCH =       14
   RHO(1)=    0.500       N(1)  =     2000
   RHO(2)=  100.500       N(2)  =     4000

 VTST: version 4.2, (08/11/21)

 CHAIN: initializing optimizer
 
 OPT: Using VASP Dynamics algorithm
 CHAIN: Read ICHAIN            0
 
 POSCAR: #BaTiO3
  positions in direct lattice
  velocities in cartesian coordinates
 


--------------------------------------------------------------------------------------------------------


 ion  position               nearest neighbor table
   1  0.000  1.000  1.000- 127 2.82 110 2.82 116 2.82 109 2.82  75 2.82  81 2.82  57 2.82  63 2.82
                            56 2.82  73 2.82  62 2.82  55 2.82  52 3.45  48 3.45  46 3.45  36 3.45
   2  0.333  0.000  1.000-  57 2.82 110 2.82  75 2.82  56 2.82 112 2.82 130 2.82 113 2.82  60 2.82
                            59 2.82  78 2.82  58 2.82  76 2.82  46 3.45  28 3.45  52 3.45  34 3.45
   3  0.667  1.000  1.000-  81 2.82 116 2.82  63 2.82  62 2.82 133 2.82 113 2.82  78 2.82 115 2.82
                            79 2.82  60 2.82  59 2.82  61 2.82  54 3.45  36 3.45  48 3.45  30 3.45
   4  1.000  0.333  1.000-  63 2.82  55 2.82 109 2.82  57 2.82  71 2.82 125 2.82  72 2.82 119 2.82
                           118 2.82  65 2.82  64 2.82  66 2.82  48 3.45  46 3.45  30 3.45  28 3.45
   5  0.333  0.333  1.000-  57 2.82  60 2.82 112 2.82 119 2.82  66 2.82  58 2.82  65 2.82 122 2.82
                            69 2.82 121 2.82  68 2.82  67 2.82  46 3.45  28 3.45  47 3.45  49 3.45
   6  0.667  0.333  1.000-  63 2.82  60 2.82  72 2.82 115 2.82 125 2.82  61 2.82  71 2.82  69 2.82
                           124 2.82 122 2.82  68 2.82  70 2.82  48 3.45  30 3.45  47 3.45  29 3.45
   7  0.000  0.667  0.000-  73 2.82  75 2.82  81 2.82 127 2.82  74 2.82  80 2.82  64 2.82  66 2.82
                            72 2.82 128 2.82 134 2.82 118 2.82  36 3.45  34 3.45  52 3.45  54 3.45
   8  0.333  0.667  0.000-  75 2.82  76 2.82  66 2.82  74 2.82  78 2.82 128 2.82 130 2.82  67 2.82
                            77 2.82  69 2.82 121 2.82 131 2.82  34 3.45  52 3.45  35 3.45  31 3.45
   9  0.667  0.667  0.000-  81 2.82  79 2.82  78 2.82  80 2.82  72 2.82 133 2.82 134 2.82  77 2.82
                            70 2.82  69 2.82 131 2.82 124 2.82  36 3.45  54 3.45  35 3.45  53 3.45
  10  1.000  0.000  0.333-  55 2.82  62 2.82  56 2.82  73 2.82  90 2.82  82 2.82  89 2.82 108 2.82
                            84 2.82  83 2.82 100 2.82 102 2.82  30 3.45  28 3.45  36 3.45  34 3.45
  11  0.333  1.000  0.333-  56 2.82  83 2.82  59 2.82  84 2.82 102 2.82  58 2.82  76 2.82 105 2.82
                            85 2.82  86 2.82 103 2.82  87 2.82  28 3.45  34 3.45  37 3.45  29 3.45
  12  0.667  0.000  0.333-  62 2.82  90 2.82  89 2.82 108 2.82  61 2.82  59 2.82  79 2.82  88 2.82
                            86 2.82  87 2.82 106 2.82 105 2.82  30 3.45  36 3.45  39 3.45  45 3.45
  13  0.000  0.333  0.333-  55 2.82  84 2.82  65 2.82  82 2.82  90 2.82  71 2.82  64 2.82  92 2.82
                            93 2.82  99 2.82  91 2.82  98 2.82  30 3.45  28 3.45  37 3.45  39 3.45
  14  0.333  0.333  0.333-  65 2.82  84 2.82  58 2.82  93 2.82  92 2.82  67 2.82  85 2.82  68 2.82
                            87 2.82  94 2.82  96 2.82  95 2.82  28 3.45  37 3.45  31 3.45  29 3.45
  15  0.667  0.333  0.333-  90 2.82  71 2.82  61 2.82  99 2.82  98 2.82  87 2.82  88 2.82  68 2.82
                            70 2.82  97 2.82  95 2.82  96 2.82  30 3.45  39 3.45  33 3.45  29 3.45
  16  0.000  0.667  0.333-  73 2.82  64 2.82  74 2.82 102 2.82  80 2.82 108 2.82 100 2.82  93 2.82
                            99 2.82  91 2.82 101 2.82 107 2.82  34 3.45  36 3.45  31 3.45  33 3.45
  17  0.333  0.667  0.333- 102 2.82  74 2.82  76 2.82  93 2.82 101 2.82  67 2.82 103 2.82 105 2.82
                            77 2.82  94 2.82  96 2.82 104 2.82  34 3.45  43 3.45  31 3.45  35 3.45
  18  0.667  0.667  0.333-  79 2.82  80 2.82 108 2.82  70 2.82  99 2.82  77 2.82 105 2.82 107 2.82
                           106 2.82  96 2.82 104 2.82  97 2.82  36 3.45  33 3.45  35 3.45  45 3.45
  19  1.000  1.000  0.667- 116 2.82 127 2.82 109 2.82 110 2.82 135 2.82 117 2.82 100 2.82 129 2.82
                           111 2.82  89 2.82  83 2.82  82 2.82  48 3.45  54 3.45  52 3.45  46 3.45
  20  0.333  1.000  0.667- 110 2.82 130 2.82 112 2.82 129 2.82  83 2.82 111 2.82 113 2.82 132 2.82
                           103 2.82  85 2.82 114 2.82  86 2.82  46 3.45  52 3.45  47 3.45  53 3.45
  21  0.667  1.000  0.667- 116 2.82  89 2.82 135 2.82 117 2.82 133 2.82 115 2.82 113 2.82 106 2.82
                            88 2.82  86 2.82 132 2.82 114 2.82  54 3.45  48 3.45  45 3.45  39 3.45
  22  1.000  0.333  0.667- 109 2.82 117 2.82 125 2.82 111 2.82  82 2.82 118 2.82 119 2.82  98 2.82
                           126 2.82  91 2.82  92 2.82 120 2.82  48 3.45  46 3.45  39 3.45  37 3.45
  23  0.333  0.333  0.667- 119 2.82 112 2.82 111 2.82 121 2.82 120 2.82 122 2.82  92 2.82 114 2.82
                            85 2.82 123 2.82  94 2.82  95 2.82  46 3.45  49 3.45  47 3.45  37 3.45
  24  0.667  0.333  0.667- 125 2.82 115 2.82 117 2.82 126 2.82 124 2.82  98 2.82 114 2.82 122 2.82
                            88 2.82  97 2.82 123 2.82  95 2.82  48 3.45  51 3.45  39 3.45  47 3.45
  25  0.000  0.667  0.667- 127 2.82 129 2.82 100 2.82 128 2.82 135 2.82 134 2.82 118 2.82 101 2.82
                           120 2.82 107 2.82  91 2.82 126 2.82  52 3.45  54 3.45  43 3.45  45 3.45
  26  0.333  0.667  0.667- 129 2.82 128 2.82 130 2.82 120 2.82 101 2.82 103 2.82 121 2.82 132 2.82
                           131 2.82  94 2.82 104 2.82 123 2.82  52 3.45  43 3.45  49 3.45  40 3.45
  27  0.667  0.667  0.667- 134 2.82 135 2.82 133 2.82 126 2.82 107 2.82 124 2.82 131 2.82 132 2.82
                           106 2.82  97 2.82 123 2.82 104 2.82  54 3.45  51 3.45  45 3.45  53 3.45
  28  0.167  0.167  0.167-  58 1.99  84 1.99  65 1.99  56 1.99  57 1.99  55 1.99  14 3.45  11 3.45
                            13 3.45   5 3.45   2 3.45  10 3.45   4 3.45   1 3.45
  29  0.500  0.167  0.167-  68 1.99  87 1.99  61 1.99  59 1.99  58 1.99  60 1.99  15 3.45  14 3.45
                             6 3.45   5 3.45  11 3.45  12 3.45   2 3.45   3 3.45
  30  0.833  0.167  0.167-  61 1.99  71 1.99  90 1.99  62 1.99  63 1.99  55 1.99  15 3.45  12 3.45
                            13 3.45   6 3.45  10 3.45   4 3.45   3 3.45   1 3.45
  31  0.167  0.500  0.167-  67 1.99  93 1.99  74 1.99  64 1.99  65 1.99  66 1.99  17 3.45  14 3.45
                            16 3.45   8 3.45  13 3.45   5 3.45   7 3.45   4 3.45
  32  0.500  0.500  0.167-  96 1.99  70 1.99  77 1.99  68 1.99  67 1.99  69 1.99  18 3.45  17 3.45
                            15 3.45  14 3.45   9 3.45   8 3.45   6 3.45   5 3.45
  33  0.833  0.500  0.167-  70 1.99  99 1.99  80 1.99  71 1.99  64 1.99  72 1.99  18 3.45  15 3.45
                            16 3.45   9 3.45   6 3.45  13 3.45   7 3.45   4 3.45
  34  0.167  0.833  0.167-  76 1.99  74 1.99 102 1.99  75 1.99  56 1.99  73 1.99  17 3.45   8 3.45
                            16 3.45  11 3.45   7 3.45   2 3.45  10 3.45   1 3.45
  35  0.500  0.833  0.167-  77 1.99 105 1.99  76 1.99  79 1.99  78 1.99  59 1.99  18 3.45  17 3.45
                             8 3.45   9 3.45  11 3.45  12 3.45   2 3.45   3 3.45
  36  0.833  0.833  0.167-  80 1.99  79 1.99 108 1.99  62 1.99  73 1.99  81 1.99  18 3.45   9 3.45
                            16 3.45  12 3.45   7 3.45   3 3.45  10 3.45   1 3.45
  37  0.167  0.167  0.500-  92 1.99  85 1.99  84 1.99 111 1.99  82 1.99  83 1.99  14 3.45  23 3.45
                            13 3.45  22 3.45  11 3.45  20 3.45  10 3.45  19 3.45
  38  0.500  0.167  0.500-  95 1.99  88 1.99  87 1.99 114 1.99  86 1.99  85 1.99  15 3.45  24 3.45
                            23 3.45  14 3.45  12 3.45  21 3.45  11 3.45  20 3.45
  39  0.833  0.167  0.500-  88 1.99  98 1.99  90 1.99 117 1.99  89 1.99  82 1.99  15 3.45  24 3.45
                            12 3.45  21 3.45  22 3.45  13 3.45  10 3.45  19 3.45
  40  0.167  0.500  0.500-  94 1.99 120 1.99 101 1.99  92 1.99  93 1.99  91 1.99  26 3.45  17 3.45
                            14 3.45  23 3.45  25 3.45  16 3.45  13 3.45  22 3.45
  41  0.500  0.500  0.500- 104 1.99 123 1.99  97 1.99  96 1.99  95 1.99  94 1.99  18 3.45  26 3.45
                            23 3.45  27 3.45  17 3.45  24 3.45  15 3.45  14 3.45
  42  0.833  0.500  0.500-  97 1.99 126 1.99 107 1.99  98 1.99  99 1.99  91 1.99  24 3.45  27 3.45
                            15 3.45  18 3.45  22 3.45  25 3.45  13 3.45  16 3.45
  43  0.167  0.833  0.500- 101 1.99 103 1.99 129 1.99 102 1.99 100 1.99  83 1.99  26 3.45  17 3.45
                            25 3.45  16 3.45  11 3.45  20 3.45  19 3.45  10 3.45
  44  0.500  0.833  0.500- 104 1.99 105 1.99 106 1.99  86 1.99 103 1.99 132 1.99  18 3.45  17 3.45
                            27 3.45  26 3.45  11 3.45  12 3.45  21 3.45  20 3.45
  45  0.833  0.833  0.500- 106 1.99 107 1.99 135 1.99 108 1.99  89 1.99 100 1.99  27 3.45  18 3.45
                            21 3.45  25 3.45  12 3.45  16 3.45  19 3.45  10 3.45
  46  0.167  0.167  0.833- 112 1.99 119 1.99 111 1.99  57 1.99 110 1.99 109 1.99  23 3.45  20 3.45
                            22 3.45   5 3.45   2 3.45   4 3.45  19 3.45   1 3.45
  47  0.500  0.167  0.833- 122 1.99 114 1.99 112 1.99 115 1.99  60 1.99 113 1.99  23 3.45  24 3.45
                             5 3.45  20 3.45   6 3.45  21 3.45   2 3.45   3 3.45
  48  0.833  0.167  0.833- 125 1.99 115 1.99 117 1.99 109 1.99  63 1.99 116 1.99  24 3.45  22 3.45
                             6 3.45  21 3.45   4 3.45  19 3.45   3 3.45   1 3.45
  49  0.167  0.500  0.833- 121 1.99 120 1.99 128 1.99 119 1.99 118 1.99  66 1.99  23 3.45  26 3.45
                             5 3.45  25 3.45  22 3.45   8 3.45   4 3.45   7 3.45
  50  0.500  0.500  0.833- 123 1.99 122 1.99 124 1.99 121 1.99 131 1.99  69 1.99  23 3.45  24 3.45
                            27 3.45  26 3.45   6 3.45   5 3.45   9 3.45   8 3.45
  51  0.833  0.500  0.833- 124 1.99 126 1.99 125 1.99 134 1.99 118 1.99  72 1.99  27 3.45  24 3.45
                             6 3.45   9 3.45  22 3.45  25 3.45   4 3.45   7 3.45
  52  0.167  0.833  0.833- 130 1.99 128 1.99 129 1.99 110 1.99  75 1.99 127 1.99  26 3.45  25 3.45
                            20 3.45   8 3.45   2 3.45   7 3.45  19 3.45   1 3.45
  53  0.500  0.833  0.833- 131 1.99 132 1.99 133 1.99 113 1.99  78 1.99 130 1.99  27 3.45   9 3.45
                            21 3.45  20 3.45  26 3.45   8 3.45   3 3.45   2 3.45
  54  0.833  0.833  0.833- 133 1.99 134 1.99 135 1.99 116 1.99  81 1.99 127 1.99  27 3.45  21 3.45
                            25 3.45   9 3.45   3 3.45  19 3.45   7 3.45   1 3.45
  55  1.000  0.167  0.167-  30 1.99  28 1.99  13 2.82   4 2.82  10 2.82   1 2.82
  56  0.167  1.000  0.167-  34 1.99  28 1.99  11 2.82   2 2.82  10 2.82   1 2.82
  57  0.167  0.167  1.000-  46 1.99  28 1.99   5 2.82   2 2.82   4 2.82   1 2.82
  58  0.333  0.167  0.167-  28 1.99  29 1.99  14 2.82   5 2.82  11 2.82   2 2.82
  59  0.500  1.000  0.167-  29 1.99  35 1.99  11 2.82  12 2.82   2 2.82   3 2.82
  60  0.500  0.167  1.000-  47 1.99  29 1.99   5 2.82   6 2.82   2 2.82   3 2.82
  61  0.667  0.167  0.167-  30 1.99  29 1.99  15 2.82   6 2.82  12 2.82   3 2.82
  62  0.833  0.000  0.167-  30 1.99  36 1.99  12 2.82  10 2.82   3 2.82   1 2.82
  63  0.833  0.167  0.000-  30 1.99  48 1.99   6 2.82   4 2.82   3 2.82   1 2.82
  64  1.000  0.500  0.167-  31 1.99  33 1.99  16 2.82  13 2.82   7 2.82   4 2.82
  65  0.167  0.333  0.167-  28 1.99  31 1.99  14 2.82  13 2.82   5 2.82   4 2.82
  66  0.167  0.500  1.000-  31 1.99  49 1.99   8 2.82   5 2.82   7 2.82   4 2.82
  67  0.333  0.500  0.167-  31 1.99  32 1.99  17 2.82  14 2.82   8 2.82   5 2.82
  68  0.500  0.333  0.167-  29 1.99  32 1.99  14 2.82  15 2.82   5 2.82   6 2.82
  69  0.500  0.500  1.000-  32 1.99  50 1.99   5 2.82   6 2.82   8 2.82   9 2.82
  70  0.667  0.500  0.167-  33 1.99  32 1.99  18 2.82  15 2.82   9 2.82   6 2.82
  71  0.833  0.333  0.167-  30 1.99  33 1.99  15 2.82  13 2.82   6 2.82   4 2.82
  72  0.833  0.500  0.000-  33 1.99  51 1.99   6 2.82   9 2.82   4 2.82   7 2.82
  73  0.000  0.833  0.167-  34 1.99  36 1.99  16 2.82   7 2.82  10 2.82   1 2.82
  74  0.167  0.667  0.167-  34 1.99  31 1.99  17 2.82  16 2.82   8 2.82   7 2.82
  75  0.167  0.833  0.000-  34 1.99  52 1.99   8 2.82   7 2.82   2 2.82   1 2.82
  76  0.333  0.833  0.167-  34 1.99  35 1.99  17 2.82   8 2.82  11 2.82   2 2.82
  77  0.500  0.667  0.167-  35 1.99  32 1.99  18 2.82  17 2.82   8 2.82   9 2.82
  78  0.500  0.833  0.000-  35 1.99  53 1.99   9 2.82   8 2.82   3 2.82   2 2.82
  79  0.667  0.833  0.167-  36 1.99  35 1.99  18 2.82   9 2.82  12 2.82   3 2.82
  80  0.833  0.667  0.167-  36 1.99  33 1.99  18 2.82   9 2.82  16 2.82   7 2.82
  81  0.833  0.833  1.000-  54 1.99  36 1.99   9 2.82   7 2.82   3 2.82   1 2.82
  82  1.000  0.167  0.500-  39 1.99  37 1.99  22 2.82  13 2.82  10 2.82  19 2.82
  83  0.167  1.000  0.500-  43 1.99  37 1.99  20 2.82  11 2.82  10 2.82  19 2.82
  84  0.167  0.167  0.333-  28 1.99  37 1.99  14 2.82  13 2.82  11 2.82  10 2.82
  85  0.333  0.167  0.500-  37 1.99  38 1.99  14 2.82  23 2.82  11 2.82  20 2.82
  86  0.500  1.000  0.500-  44 1.99  38 1.99  12 2.82  21 2.82  11 2.82  20 2.82
  87  0.500  0.167  0.333-  29 1.99  38 1.99  15 2.82  14 2.82  12 2.82  11 2.82
  88  0.667  0.167  0.500-  39 1.99  38 1.99  15 2.82  24 2.82  12 2.82  21 2.82
  89  0.833  0.000  0.500-  39 1.99  45 1.99  12 2.82  21 2.82  10 2.82  19 2.82
  90  0.833  0.167  0.333-  30 1.99  39 1.99  15 2.82  12 2.82  13 2.82  10 2.82
  91  1.000  0.500  0.500-  40 1.99  42 1.99  16 2.82  25 2.82  13 2.82  22 2.82
  92  0.167  0.333  0.500-  37 1.99  40 1.99  14 2.82  23 2.82  13 2.82  22 2.82
  93  0.167  0.500  0.333-  31 1.99  40 1.99  17 2.82  14 2.82  16 2.82  13 2.82
  94  0.333  0.500  0.500-  40 1.99  41 1.99  26 2.82  17 2.82  14 2.82  23 2.82
  95  0.500  0.333  0.500-  38 1.99  41 1.99  24 2.82  15 2.82  23 2.82  14 2.82
  96  0.500  0.500  0.333-  32 1.99  41 1.99  18 2.82  17 2.82  14 2.82  15 2.82
  97  0.667  0.500  0.500-  42 1.99  41 1.99  24 2.82  27 2.82  15 2.82  18 2.82
  98  0.833  0.333  0.500-  39 1.99  42 1.99  24 2.82  15 2.82  22 2.82  13 2.82
  99  0.833  0.500  0.333-  33 1.99  42 1.99  18 2.82  15 2.82  16 2.82  13 2.82
 100  0.000  0.833  0.500-  43 1.99  45 1.99  25 2.82  16 2.82  19 2.82  10 2.82
 101  0.167  0.667  0.500-  43 1.99  40 1.99  26 2.82  17 2.82  25 2.82  16 2.82
 102  0.167  0.833  0.333-  34 1.99  43 1.99  17 2.82  16 2.82  11 2.82  10 2.82
 103  0.333  0.833  0.500-  43 1.99  44 1.99  26 2.82  17 2.82  11 2.82  20 2.82
 104  0.500  0.667  0.500-  44 1.99  41 1.99  17 2.82  26 2.82  18 2.82  27 2.82
 105  0.500  0.833  0.333-  35 1.99  44 1.99  18 2.82  17 2.82  11 2.82  12 2.82
 106  0.667  0.833  0.500-  45 1.99  44 1.99  27 2.82  18 2.82  21 2.82  12 2.82
 107  0.833  0.667  0.500-  45 1.99  42 1.99  27 2.82  18 2.82  25 2.82  16 2.82
 108  0.833  0.833  0.333-  36 1.99  45 1.99  18 2.82  12 2.82  16 2.82  10 2.82
 109  0.000  0.167  0.833-  48 1.99  46 1.99  22 2.82  19 2.82   4 2.82   1 2.82
 110  0.167  0.000  0.833-  46 1.99  52 1.99  20 2.82  19 2.82   2 2.82   1 2.82
 111  0.167  0.167  0.667-  46 1.99  37 1.99  23 2.82  22 2.82  20 2.82  19 2.82
 112  0.333  0.167  0.833-  46 1.99  47 1.99  23 2.82  20 2.82   5 2.82   2 2.82
 113  0.500  0.000  0.833-  53 1.99  47 1.99  20 2.82  21 2.82   3 2.82   2 2.82
 114  0.500  0.167  0.667-  47 1.99  38 1.99  24 2.82  23 2.82  21 2.82  20 2.82
 115  0.667  0.167  0.833-  48 1.99  47 1.99  24 2.82   6 2.82  21 2.82   3 2.82
 116  0.833  1.000  0.833-  54 1.99  48 1.99  21 2.82  19 2.82   3 2.82   1 2.82
 117  0.833  0.167  0.667-  48 1.99  39 1.99  24 2.82  22 2.82  21 2.82  19 2.82
 118  1.000  0.500  0.833-  49 1.99  51 1.99  22 2.82  25 2.82   4 2.82   7 2.82
 119  0.167  0.333  0.833-  46 1.99  49 1.99  23 2.82   5 2.82  22 2.82   4 2.82
 120  0.167  0.500  0.667-  49 1.99  40 1.99  26 2.82  23 2.82  25 2.82  22 2.82
 121  0.333  0.500  0.833-  49 1.99  50 1.99  23 2.82  26 2.82   5 2.82   8 2.82
 122  0.500  0.333  0.833-  47 1.99  50 1.99  23 2.82  24 2.82   5 2.82   6 2.82
 123  0.500  0.500  0.667-  50 1.99  41 1.99  23 2.82  24 2.82  27 2.82  26 2.82
 124  0.667  0.500  0.833-  51 1.99  50 1.99  24 2.82  27 2.82   6 2.82   9 2.82
 125  0.833  0.333  0.833-  48 1.99  51 1.99  24 2.82  22 2.82   6 2.82   4 2.82
 126  0.833  0.500  0.667-  51 1.99  42 1.99  24 2.82  27 2.82  22 2.82  25 2.82
 127  1.000  0.833  0.833-  54 1.99  52 1.99  25 2.82  19 2.82   7 2.82   1 2.82
 128  0.167  0.667  0.833-  52 1.99  49 1.99  26 2.82  25 2.82   8 2.82   7 2.82
 129  0.167  0.833  0.667-  52 1.99  43 1.99  26 2.82  25 2.82  20 2.82  19 2.82
 130  0.333  0.833  0.833-  52 1.99  53 1.99  26 2.82  20 2.82   8 2.82   2 2.82
 131  0.500  0.667  0.833-  53 1.99  50 1.99  27 2.82  26 2.82   9 2.82   8 2.82
 132  0.500  0.833  0.667-  53 1.99  44 1.99  27 2.82  26 2.82  20 2.82  21 2.82
 133  0.667  0.833  0.833-  54 1.99  53 1.99  27 2.82   9 2.82  21 2.82   3 2.82
 134  0.833  0.667  0.833-  54 1.99  51 1.99  27 2.82   9 2.82  25 2.82   7 2.82
 135  0.833  0.833  0.667-  54 1.99  45 1.99  27 2.82  21 2.82  25 2.82  19 2.82
 

IMPORTANT INFORMATION: All symmetrisations will be switched off!
NOSYMM: (Re-)initialisation of all symmetry stuff for point group C_1.


----------------------------------------------------------------------------------------

                                     Primitive cell                                     

  volume of cell :    1707.3211

  direct lattice vectors                    reciprocal lattice vectors
    11.951939682 -0.000000016 -0.000000015     0.083668428  0.000000000  0.000000000
    -0.000000016 11.951939324 -0.000000010     0.000000000  0.083668430  0.000000000
    -0.000000015 -0.000000010 11.951940583     0.000000000  0.000000000  0.083668421

  length of vectors
    11.951939682 11.951939324 11.951940583     0.083668428  0.083668430  0.083668421

  position of ions in fractional coordinates (direct lattice)
     0.000000013  0.999999972  0.999999916
     0.333333122  0.000000012  0.999999956
     0.666666872  0.999999971  0.999999940
     0.999999978  0.333333101  0.999999996
     0.333333197  0.333333144  0.999999957
     0.666666824  0.333333168  0.999999974
     0.000000009  0.666666934  0.000000090
     0.333333151  0.666666847  0.000000070
     0.666666834  0.666666870  0.000000039
     0.999999947  0.000000061  0.333333183
     0.333333156  0.999999993  0.333333167
     0.666666887  0.000000072  0.333333250
     0.000000015  0.333333082  0.333333108
     0.333333127  0.333333212  0.333333164
     0.666666868  0.333333150  0.333333181
     0.000000067  0.666666846  0.333333052
     0.333333128  0.666666786  0.333333186
     0.666666801  0.666666784  0.333333106
     0.999999973  0.999999982  0.666666912
     0.333333121  0.999999991  0.666666889
     0.666666903  0.999999998  0.666666818
     0.999999952  0.333333047  0.666666897
     0.333333190  0.333333245  0.666666874
     0.666666857  0.333333189  0.666666850
     0.000000062  0.666666977  0.666666860
     0.333333053  0.666666767  0.666666755
     0.666666886  0.666666816  0.666666864
     0.166666840  0.166666742  0.166666795
     0.500000016  0.166666708  0.166666717
     0.833333152  0.166666791  0.166666812
     0.166666709  0.500000041  0.166666730
     0.500000048  0.500000039  0.166666764
     0.833333243  0.500000008  0.166666748
     0.166666846  0.833333194  0.166666776
     0.499999955  0.833333207  0.166666710
     0.833333202  0.833333190  0.166666759
     0.166666750  0.166666783  0.499999975
     0.500000060  0.166666746  0.500000008
     0.833333201  0.166666734  0.499999976
     0.166666781  0.500000022  0.500000033
     0.500000028  0.500000029  0.500000020
     0.833333132  0.499999994  0.500000080
     0.166666762  0.833333173  0.500000007
     0.500000012  0.833333269  0.499999972
     0.833333206  0.833333242  0.500000062
     0.166666828  0.166666799  0.833333219
     0.499999967  0.166666741  0.833333273
     0.833333240  0.166666828  0.833333212
     0.166666756  0.499999988  0.833333237
     0.500000017  0.499999979  0.833333215
     0.833333199  0.500000036  0.833333197
     0.166666808  0.833333191  0.833333220
     0.500000064  0.833333283  0.833333291
     0.833333127  0.833333163  0.833333171
     0.999999983  0.166666868  0.166666866
     0.166666868  0.999999967  0.166666840
     0.166666862  0.166666850  0.999999970
     0.333333292  0.166666885  0.166666869
     0.499999994  0.999999984  0.166666848
     0.500000004  0.166666898  0.999999958
     0.666666721  0.166666876  0.166666859
     0.833333137  0.000000027  0.166666855
     0.833333142  0.166666866  0.000000017
     0.999999980  0.500000026  0.166666868
     0.166666877  0.333333294  0.166666869
     0.166666898  0.500000023  0.999999989
     0.333333302  0.500000020  0.166666851
     0.499999999  0.333333300  0.166666842
     0.499999999  0.499999999  0.999999997
     0.666666717  0.500000029  0.166666847
     0.833333127  0.333333307  0.166666861
     0.833333103  0.499999997  0.000000018
     0.000000037  0.833333106  0.166666836
     0.166666861  0.666666740  0.166666846
     0.166666861  0.833333131  0.000000041
     0.333333295  0.833333094  0.166666834
     0.499999996  0.666666725  0.166666832
     0.500000000  0.833333109  0.000000013
     0.666666664  0.833333103  0.166666840
     0.833333145  0.666666664  0.166666850
     0.833333139  0.833333139  0.999999922
     0.999999963  0.166666863  0.499999997
     0.166666863  0.999999975  0.500000023
     0.166666870  0.166666882  0.333333306
     0.333333299  0.166666861  0.500000001
     0.500000026  0.999999995  0.500000004
     0.500000026  0.166666872  0.333333306
     0.666666743  0.166666841  0.500000013
     0.833333118  0.000000028  0.500000021
     0.833333111  0.166666848  0.333333330
     0.999999995  0.500000000  0.500000016
     0.166666889  0.333333305  0.499999994
     0.166666899  0.500000024  0.333333312
     0.333333314  0.500000016  0.499999999
     0.500000013  0.333333340  0.500000010
     0.499999996  0.500000007  0.333333353
     0.666666702  0.499999986  0.500000022
     0.833333103  0.333333277  0.500000027
     0.833333108  0.500000008  0.333333271
     0.000000009  0.833333131  0.500000038
     0.166666900  0.666666732  0.500000026
     0.166666869  0.833333096  0.333333306
     0.333333283  0.833333127  0.500000020
     0.499999994  0.666666666  0.500000006
     0.499999997  0.833333124  0.333333295
     0.666666715  0.833333173  0.500000010
     0.833333098  0.666666695  0.500000026
     0.833333138  0.833333149  0.333333338
     0.000000028  0.166666854  0.833333136
     0.166666843  0.000000026  0.833333136
     0.166666842  0.166666865  0.666666727
     0.333333305  0.166666852  0.833333138
     0.500000009  0.000000010  0.833333152
     0.500000022  0.166666863  0.666666721
     0.666666664  0.166666884  0.833333127
     0.833333151  0.999999920  0.833333125
     0.833333140  0.166666858  0.666666643
     0.999999999  0.499999995  0.833333119
     0.166666877  0.333333300  0.833333138
     0.166666916  0.500000023  0.666666704
     0.333333277  0.500000001  0.833333143
     0.500000003  0.333333274  0.833333149
     0.499999997  0.499999991  0.666666654
     0.666666722  0.499999968  0.833333129
     0.833333125  0.333333323  0.833333115
     0.833333090  0.499999973  0.666666682
     0.999999937  0.833333159  0.833333131
     0.166666884  0.666666664  0.833333136
     0.166666863  0.833333122  0.666666651
     0.333333323  0.833333149  0.833333144
     0.500000012  0.666666726  0.833333160
     0.500000013  0.833333149  0.666666690
     0.666666741  0.833333149  0.833333149
     0.833333112  0.666666754  0.833333119
     0.833333125  0.833333164  0.666666738

  ion indices of the primitive-cell ions
   primitive index   ion index
                 1           1
                 2           2
                 3           3
                 4           4
                 5           5
                 6           6
                 7           7
                 8           8
                 9           9
                10          10
                11          11
                12          12
                13          13
                14          14
                15          15
                16          16
                17          17
                18          18
                19          19
                20          20
                21          21
                22          22
                23          23
                24          24
                25          25
                26          26
                27          27
                28          28
                29          29
                30          30
                31          31
                32          32
                33          33
                34          34
                35          35
                36          36
                37          37
                38          38
                39          39
                40          40
                41          41
                42          42
                43          43
                44          44
                45          45
                46          46
                47          47
                48          48
                49          49
                50          50
                51          51
                52          52
                53          53
                54          54
                55          55
                56          56
                57          57
                58          58
                59          59
                60          60
                61          61
                62          62
                63          63
                64          64
                65          65
                66          66
                67          67
                68          68
                69          69
                70          70
                71          71
                72          72
                73          73
                74          74
                75          75
                76          76
                77          77
                78          78
                79          79
                80          80
                81          81
                82          82
                83          83
                84          84
                85          85
                86          86
                87          87
                88          88
                89          89
                90          90
                91          91
                92          92
                93          93
                94          94
                95          95
                96          96
                97          97
                98          98
                99          99
               100         100
               101         101
               102         102
               103         103
               104         104
               105         105
               106         106
               107         107
               108         108
               109         109
               110         110
               111         111
               112         112
               113         113
               114         114
               115         115
               116         116
               117         117
               118         118
               119         119
               120         120
               121         121
               122         122
               123         123
               124         124
               125         125
               126         126
               127         127
               128         128
               129         129
               130         130
               131         131
               132         132
               133         133
               134         134
               135         135

----------------------------------------------------------------------------------------

 
 
 KPOINTS: ###Dimou A. Kpoints                     

Automatic generation of k-mesh.
 Grid dimensions read from file:
 generate k-points for:    4    4    4

 Generating k-lattice:

  Cartesian coordinates                     Fractional coordinates (reciprocal lattice)
     0.020917107  0.000000000  0.000000000     0.250000000 -0.000000000 -0.000000000
     0.000000000  0.020917108  0.000000000     0.000000000  0.250000000 -0.000000000
     0.000000000  0.000000000  0.020917105    -0.000000000  0.000000000  0.250000000

  Length of vectors
     0.020917107  0.020917108  0.020917105

  Shift w.r.t. Gamma in fractional coordinates (k-lattice)
     0.000000000  0.000000000  0.000000000

 
 Subroutine IBZKPT returns following result:
 ===========================================
 
 Found     36 irreducible k-points:
 
 Following reciprocal coordinates:
            Coordinates               Weight
  0.000000  0.000000  0.000000      1.000000
  0.250000  0.000000  0.000000      2.000000
 -0.000000  0.250000  0.000000      2.000000
 -0.000000 -0.000000  0.250000      2.000000
  0.500000  0.000000  0.000000      1.000000
 -0.000000  0.500000 -0.000000      1.000000
 -0.000000 -0.000000  0.500000      1.000000
  0.250000  0.250000  0.000000      2.000000
 -0.000000  0.250000  0.250000      2.000000
  0.250000  0.000000  0.250000      2.000000
 -0.250000  0.250000  0.000000      2.000000
 -0.250000  0.000000  0.250000      2.000000
  0.000000 -0.250000  0.250000      2.000000
  0.500000  0.250000  0.000000      2.000000
 -0.000000  0.500000  0.250000      2.000000
  0.250000  0.000000  0.500000      2.000000
 -0.250000  0.500000 -0.000000      2.000000
  0.500000  0.000000  0.250000      2.000000
  0.000000  0.250000  0.500000      2.000000
  0.500000  0.500000  0.000000      1.000000
 -0.000000  0.500000  0.500000      1.000000
  0.500000  0.000000  0.500000      1.000000
  0.250000  0.250000  0.250000      2.000000
 -0.250000  0.250000  0.250000      2.000000
 -0.250000 -0.250000  0.250000      2.000000
  0.250000 -0.250000  0.250000      2.000000
  0.500000  0.250000  0.250000      2.000000
  0.250000  0.500000  0.250000      2.000000
  0.250000  0.250000  0.500000      2.000000
 -0.250000  0.500000  0.250000      2.000000
 -0.250000  0.250000  0.500000      2.000000
  0.500000 -0.250000  0.250000      2.000000
  0.500000  0.500000  0.250000      2.000000
  0.250000  0.500000  0.500000      2.000000
  0.500000  0.250000  0.500000      2.000000
  0.500000  0.500000  0.500000      1.000000
 
 Following cartesian coordinates:
            Coordinates               Weight
  0.000000  0.000000  0.000000      1.000000
  0.020917  0.000000  0.000000      2.000000
  0.000000  0.020917  0.000000      2.000000
  0.000000  0.000000  0.020917      2.000000
  0.041834  0.000000  0.000000      1.000000
  0.000000  0.041834  0.000000      1.000000
  0.000000  0.000000  0.041834      1.000000
  0.020917  0.020917  0.000000      2.000000
  0.000000  0.020917  0.020917      2.000000
  0.020917  0.000000  0.020917      2.000000
 -0.020917  0.020917 -0.000000      2.000000
 -0.020917 -0.000000  0.020917      2.000000
 -0.000000 -0.020917  0.020917      2.000000
  0.041834  0.020917  0.000000      2.000000
  0.000000  0.041834  0.020917      2.000000
  0.020917  0.000000  0.041834      2.000000
 -0.020917  0.041834  0.000000      2.000000
  0.041834  0.000000  0.020917      2.000000
  0.000000  0.020917  0.041834      2.000000
  0.041834  0.041834  0.000000      1.000000
  0.000000  0.041834  0.041834      1.000000
  0.041834  0.000000  0.041834      1.000000
  0.020917  0.020917  0.020917      2.000000
 -0.020917  0.020917  0.020917      2.000000
 -0.020917 -0.020917  0.020917      2.000000
  0.020917 -0.020917  0.020917      2.000000
  0.041834  0.020917  0.020917      2.000000
  0.020917  0.041834  0.020917      2.000000
  0.020917  0.020917  0.041834      2.000000
 -0.020917  0.041834  0.020917      2.000000
 -0.020917  0.020917  0.041834      2.000000
  0.041834 -0.020917  0.020917      2.000000
  0.041834  0.041834  0.020917      2.000000
  0.020917  0.041834  0.041834      2.000000
  0.041834  0.020917  0.041834      2.000000
  0.041834  0.041834  0.041834      1.000000
 
 
 Subroutine IBZKPT_HF returns following result:
 ==============================================
 
 Found     64 k-points in 1st BZ
 the following     64 k-points will be used (e.g. in the exchange kernel)
 Following reciprocal coordinates:   # in IRBZ
  0.000000  0.000000  0.000000    0.01562500   1 t-inv F
  0.250000  0.000000  0.000000    0.01562500   2 t-inv F
 -0.000000  0.250000  0.000000    0.01562500   3 t-inv F
 -0.000000 -0.000000  0.250000    0.01562500   4 t-inv F
  0.500000  0.000000  0.000000    0.01562500   5 t-inv F
 -0.000000  0.500000 -0.000000    0.01562500   6 t-inv F
 -0.000000 -0.000000  0.500000    0.01562500   7 t-inv F
  0.250000  0.250000  0.000000    0.01562500   8 t-inv F
 -0.000000  0.250000  0.250000    0.01562500   9 t-inv F
  0.250000  0.000000  0.250000    0.01562500  10 t-inv F
 -0.250000  0.250000  0.000000    0.01562500  11 t-inv F
 -0.250000  0.000000  0.250000    0.01562500  12 t-inv F
  0.000000 -0.250000  0.250000    0.01562500  13 t-inv F
  0.500000  0.250000  0.000000    0.01562500  14 t-inv F
 -0.000000  0.500000  0.250000    0.01562500  15 t-inv F
  0.250000  0.000000  0.500000    0.01562500  16 t-inv F
 -0.250000  0.500000 -0.000000    0.01562500  17 t-inv F
  0.500000  0.000000  0.250000    0.01562500  18 t-inv F
  0.000000  0.250000  0.500000    0.01562500  19 t-inv F
  0.500000  0.500000  0.000000    0.01562500  20 t-inv F
 -0.000000  0.500000  0.500000    0.01562500  21 t-inv F
  0.500000  0.000000  0.500000    0.01562500  22 t-inv F
  0.250000  0.250000  0.250000    0.01562500  23 t-inv F
 -0.250000  0.250000  0.250000    0.01562500  24 t-inv F
 -0.250000 -0.250000  0.250000    0.01562500  25 t-inv F
  0.250000 -0.250000  0.250000    0.01562500  26 t-inv F
  0.500000  0.250000  0.250000    0.01562500  27 t-inv F
  0.250000  0.500000  0.250000    0.01562500  28 t-inv F
  0.250000  0.250000  0.500000    0.01562500  29 t-inv F
 -0.250000  0.500000  0.250000    0.01562500  30 t-inv F
 -0.250000  0.250000  0.500000    0.01562500  31 t-inv F
  0.500000 -0.250000  0.250000    0.01562500  32 t-inv F
  0.500000  0.500000  0.250000    0.01562500  33 t-inv F
  0.250000  0.500000  0.500000    0.01562500  34 t-inv F
  0.500000  0.250000  0.500000    0.01562500  35 t-inv F
  0.500000  0.500000  0.500000    0.01562500  36 t-inv F
 -0.250000 -0.000000 -0.000000    0.01562500   2 t-inv T
  0.000000 -0.250000 -0.000000    0.01562500   3 t-inv T
  0.000000  0.000000 -0.250000    0.01562500   4 t-inv T
 -0.250000 -0.250000 -0.000000    0.01562500   8 t-inv T
  0.000000 -0.250000 -0.250000    0.01562500   9 t-inv T
 -0.250000 -0.000000 -0.250000    0.01562500  10 t-inv T
  0.250000 -0.250000 -0.000000    0.01562500  11 t-inv T
  0.250000 -0.000000 -0.250000    0.01562500  12 t-inv T
 -0.000000  0.250000 -0.250000    0.01562500  13 t-inv T
 -0.500000 -0.250000 -0.000000    0.01562500  14 t-inv T
  0.000000 -0.500000 -0.250000    0.01562500  15 t-inv T
 -0.250000 -0.000000 -0.500000    0.01562500  16 t-inv T
  0.250000 -0.500000  0.000000    0.01562500  17 t-inv T
 -0.500000 -0.000000 -0.250000    0.01562500  18 t-inv T
 -0.000000 -0.250000 -0.500000    0.01562500  19 t-inv T
 -0.250000 -0.250000 -0.250000    0.01562500  23 t-inv T
  0.250000 -0.250000 -0.250000    0.01562500  24 t-inv T
  0.250000  0.250000 -0.250000    0.01562500  25 t-inv T
 -0.250000  0.250000 -0.250000    0.01562500  26 t-inv T
 -0.500000 -0.250000 -0.250000    0.01562500  27 t-inv T
 -0.250000 -0.500000 -0.250000    0.01562500  28 t-inv T
 -0.250000 -0.250000 -0.500000    0.01562500  29 t-inv T
  0.250000 -0.500000 -0.250000    0.01562500  30 t-inv T
  0.250000 -0.250000 -0.500000    0.01562500  31 t-inv T
 -0.500000  0.250000 -0.250000    0.01562500  32 t-inv T
 -0.500000 -0.500000 -0.250000    0.01562500  33 t-inv T
 -0.250000 -0.500000 -0.500000    0.01562500  34 t-inv T
 -0.500000 -0.250000 -0.500000    0.01562500  35 t-inv T


--------------------------------------------------------------------------------------------------------




 Dimension of arrays:
   k-points           NKPTS =     36   k-points in BZ     NKDIM =     36   number of bands    NBANDS=    672
   number of dos      NEDOS =    301   number of ions     NIONS =    135
   non local maximal  LDIM  =      6   non local SUM 2l+1 LMDIM =     18
   total plane-waves  NPLWV = 884736
   max r-space proj   IRMAX =      1   max aug-charges    IRDMAX= 259671
   dimension x,y,z NGX =    96 NGY =   96 NGZ =   96
   dimension x,y,z NGXF=   192 NGYF=  192 NGZF=  192
   support grid    NGXF=   384 NGYF=  384 NGZF=  384
   ions per type =              27  27  81
   NGX,Y,Z   is equivalent  to a cutoff of  13.35, 13.35, 13.35 a.u.
   NGXF,Y,Z  is equivalent  to a cutoff of  26.71, 26.71, 26.71 a.u.

 SYSTEM =  unknown system                          
 POSCAR =  #BaTiO3                                 

 Startparameter for this run:
   NWRITE =      2    write-flag & timer
   PREC   = accura    normal or accurate (medium, high low for compatibility)
   ISTART =      0    job   : 0-new  1-cont  2-samecut
   ICHARG =      2    charge: 1-file 2-atom 10-const
   ISPIN  =      1    spin polarized calculation?
   LNONCOLLINEAR =      F non collinear calculations
   LSORBIT =      F    spin-orbit coupling
   INIWAV =      1    electr: 0-lowe 1-rand  2-diag
   LASPH  =      T    aspherical Exc in radial PAW
 Electronic Relaxation 1
   ENCUT  =  580.0 eV  42.63 Ry    6.53 a.u.  23.47 23.47 23.47*2*pi/ulx,y,z
   ENINI  =  580.0     initial cutoff
   ENAUG  =  605.4 eV  augmentation charge cutoff
   NELM   =     60;   NELMIN=  2; NELMDL=  0     # of ELM steps 
   EDIFF  = 0.1E-04   stopping-criterion for ELM
   LREAL  =      F    real-space projection
   NLSPLINE    = F    spline interpolate recip. space projectors
   LCOMPAT=      F    compatible to vasp.4.4
   GGA_COMPAT  = T    GGA compatible to vasp.4.4-vasp.4.6
   LMAXPAW     = -100 max onsite density
   LMAXMIX     =    4 max onsite mixed and CHGCAR
   VOSKOWN=      0    Vosko Wilk Nusair interpolation
   ROPT   =    0.00000   0.00000   0.00000
 Ionic relaxation
   EDIFFG = -.1E-01   stopping-criterion for IOM
   NSW    =      0    number of steps for IOM
   NBLOCK =      1;   KBLOCK =      1    inner block; outer block 
   IBRION =     -1    ionic relax: 0-MD 1-quasi-New 2-CG
   NFREE  =      0    steps in history (QN), initial steepest desc. (CG)
   ISIF   =      2    stress and relaxation
   IWAVPR =     10    prediction:  0-non 1-charg 2-wave 3-comb
   ISYM   =      0    0-nonsym 1-usesym 2-fastsym
   LCORR  =      T    Harris-Foulkes like correction to forces

   POTIM  = 0.5000    time-step for ionic-motion
   TEIN   =    0.0    initial temperature
   TEBEG  =    0.0;   TEEND  =   0.0 temperature during run
   SMASS  =  -3.00    Nose mass-parameter (am)
   estimated Nose-frequenzy (Omega)   =  0.10E-29 period in steps = 0.13E+47 mass=  -0.326E-26a.u.
   SCALEE = 1.0000    scale energy and forces
   NPACO  =    256;   APACO  = 10.0  distance and # of slots for P.C.
   PSTRESS=    0.0 pullay stress

  Mass of Ions in am
   POMASS = 137.33 47.88 16.00
  Ionic Valenz
   ZVAL   =  10.00 12.00  6.00
  Atomic Wigner-Seitz radii
   RWIGS  =  -1.00 -1.00 -1.00
  virtual crystal weights 
   VCA    =   1.00  1.00  1.00
   NELECT =    1080.0000    total number of electrons
   NUPDOWN=      -1.0000    fix difference up-down

 DOS related values:
   EMIN   =  10.00;   EMAX   =-10.00  energy-range for DOS
   EFERMI =   0.00
   ISMEAR =     0;   SIGMA  =   0.05  broadening in eV -4-tet -1-fermi 0-gaus

 Electronic relaxation 2 (details)
   IALGO  =     38    algorithm
   LDIAG  =      T    sub-space diagonalisation (order eigenvalues)
   LSUBROT=      F    optimize rotation matrix (better conditioning)
   TURBO    =      0    0=normal 1=particle mesh
   IRESTART =      0    0=no restart 2=restart with 2 vectors
   NREBOOT  =      0    no. of reboots
   NMIN     =      0    reboot dimension
   EREF     =   0.00    reference energy to select bands
   IMIX   =      4    mixing-type and parameters
     AMIX     =   0.40;   BMIX     =  1.00
     AMIX_MAG =   1.60;   BMIX_MAG =  1.00
     AMIN     =   0.10
     WC   =   100.;   INIMIX=   1;  MIXPRE=   1;  MAXMIX= -45

 Intra band minimization:
   WEIMIN = 0.0000     energy-eigenvalue tresh-hold
   EBREAK =  0.37E-08  absolut break condition
   DEPER  =   0.30     relativ break condition  

   TIME   =   0.40     timestep for ELM

  volume/ion in A,a.u.               =      12.65        85.34
  Fermi-wavevector in a.u.,A,eV,Ry     =   1.405328  2.655685 26.870780  1.974947
  Thomas-Fermi vector in A             =   2.527800
 
 Write flags
   LWAVE        =      F    write WAVECAR
   LDOWNSAMPLE  =      F    k-point downsampling of WAVECAR
   LCHARG       =      T    write CHGCAR
   LVTOT        =      F    write LOCPOT, total local potential
   LVHAR        =      F    write LOCPOT, Hartree potential only
   LELF         =      F    write electronic localiz. function (ELF)
   LORBIT       =     11    0 simple, 1 ext, 2 COOP (PROOUT), +10 PAW based schemes


 Dipole corrections
   LMONO  =      F    monopole corrections only (constant potential shift)
   LDIPOL =      F    correct potential (dipole corrections)
   IDIPOL =      0    1-x, 2-y, 3-z, 4-all directions 
   EPSILON=  1.0000000 bulk dielectric constant

 Exchange correlation treatment:
   GGA     =    PS    GGA type
   LEXCH   =    14    internal setting for exchange type
   LIBXC   =     F    Libxc                    
   VOSKOWN =     0    Vosko Wilk Nusair interpolation
   LHFCALC =     F    Hartree Fock is set to
   LHFONE  =     F    Hartree Fock one center treatment
   AEXX    =    0.0000 exact exchange contribution

 Linear response parameters
   LEPSILON=     T    determine dielectric tensor
   LRPA    =     F    only Hartree local field effects (RPA)
   LNABLA  =     F    use nabla operator in PAW spheres
   LVEL    =     F    velocity operator in full k-point grid
   CSHIFT  =0.1000    complex shift for real part using Kramers Kronig
   OMEGAMAX=  -1.0    maximum frequency
   DEG_THRESHOLD= 0.2000000E-02 threshold for treating states as degnerate
   RTIME   =   -0.100 relaxation time in fs
  (WPLASMAI=    0.000 imaginary part of plasma frequency in eV, 0.658/RTIME)
   DFIELD  = 0.0000000 0.0000000 0.0000000 field for delta impulse in time
 
  Optional k-point grid parameters
   LKPOINTS_OPT  =     F    use optional k-point grid
   KPOINTS_OPT_MODE=     1    mode for optional k-point grid
 
 Orbital magnetization related:
   ORBITALMAG=     F  switch on orbital magnetization
   LCHIMAG   =     F  perturbation theory with respect to B field
   DQ        =  0.001000  dq finite difference perturbation B field
   LLRAUG    =     F  two centre corrections for induced B field



--------------------------------------------------------------------------------------------------------


 Static calculation
 charge density and potential will be updated during run
 non-spin polarized calculation
 Variant of blocked Davidson
 Davidson routine will perform the subspace rotation
 perform sub-space diagonalisation
    after iterative eigenvector-optimisation
 modified Broyden-mixing scheme, WC =      100.0
 initial mixing is a Kerker type mixing with AMIX =  0.4000 and BMIX =      1.0000
 Hartree-type preconditioning will be used
 using additional bands          132
 reciprocal scheme for non local part
 use partial core corrections
 calculate Harris-corrections to forces 
   (improved forces if not selfconsistent)
 use gradient corrections 
 use of overlap-Matrix (Vanderbilt PP)
 Gauss-broadening in eV      SIGMA  =   0.05


--------------------------------------------------------------------------------------------------------


  energy-cutoff  :      580.00
  volume of cell :     1707.32
      direct lattice vectors                 reciprocal lattice vectors
    11.951939682 -0.000000016 -0.000000015     0.083668428  0.000000000  0.000000000
    -0.000000016 11.951939324 -0.000000010     0.000000000  0.083668430  0.000000000
    -0.000000015 -0.000000010 11.951940583     0.000000000  0.000000000  0.083668421

  length of vectors
    11.951939682 11.951939324 11.951940583     0.083668428  0.083668430  0.083668421


 
 k-points in units of 2pi/SCALE and weight: ###Dimou A. Kpoints                     
   0.00000000  0.00000000  0.00000000       0.016
   0.02091711  0.00000000  0.00000000       0.031
   0.00000000  0.02091711  0.00000000       0.031
   0.00000000  0.00000000  0.02091711       0.031
   0.04183421  0.00000000  0.00000000       0.016
   0.00000000  0.04183422  0.00000000       0.016
   0.00000000  0.00000000  0.04183421       0.016
   0.02091711  0.02091711  0.00000000       0.031
   0.00000000  0.02091711  0.02091711       0.031
   0.02091711  0.00000000  0.02091711       0.031
  -0.02091711  0.02091711 -0.00000000       0.031
  -0.02091711 -0.00000000  0.02091711       0.031
  -0.00000000 -0.02091711  0.02091711       0.031
   0.04183421  0.02091711  0.00000000       0.031
   0.00000000  0.04183422  0.02091711       0.031
   0.02091711  0.00000000  0.04183421       0.031
  -0.02091711  0.04183422  0.00000000       0.031
   0.04183421  0.00000000  0.02091711       0.031
   0.00000000  0.02091711  0.04183421       0.031
   0.04183421  0.04183422  0.00000000       0.016
   0.00000000  0.04183422  0.04183421       0.016
   0.04183421  0.00000000  0.04183421       0.016
   0.02091711  0.02091711  0.02091711       0.031
  -0.02091711  0.02091711  0.02091711       0.031
  -0.02091711 -0.02091711  0.02091711       0.031
   0.02091711 -0.02091711  0.02091711       0.031
   0.04183421  0.02091711  0.02091711       0.031
   0.02091711  0.04183422  0.02091711       0.031
   0.02091711  0.02091711  0.04183421       0.031
  -0.02091711  0.04183422  0.02091711       0.031
  -0.02091711  0.02091711  0.04183421       0.031
   0.04183421 -0.02091711  0.02091711       0.031
   0.04183421  0.04183422  0.02091711       0.031
   0.02091711  0.04183422  0.04183421       0.031
   0.04183421  0.02091711  0.04183421       0.031
   0.04183421  0.04183422  0.04183421       0.016
 
 k-points in reciprocal lattice and weights: ###Dimou A. Kpoints                     
   0.00000000  0.00000000  0.00000000       0.016
   0.25000000  0.00000000  0.00000000       0.031
  -0.00000000  0.25000000  0.00000000       0.031
  -0.00000000 -0.00000000  0.25000000       0.031
   0.50000000  0.00000000  0.00000000       0.016
  -0.00000000  0.50000000 -0.00000000       0.016
  -0.00000000 -0.00000000  0.50000000       0.016
   0.25000000  0.25000000  0.00000000       0.031
  -0.00000000  0.25000000  0.25000000       0.031
   0.25000000  0.00000000  0.25000000       0.031
  -0.25000000  0.25000000  0.00000000       0.031
  -0.25000000  0.00000000  0.25000000       0.031
   0.00000000 -0.25000000  0.25000000       0.031
   0.50000000  0.25000000  0.00000000       0.031
  -0.00000000  0.50000000  0.25000000       0.031
   0.25000000  0.00000000  0.50000000       0.031
  -0.25000000  0.50000000 -0.00000000       0.031
   0.50000000  0.00000000  0.25000000       0.031
   0.00000000  0.25000000  0.50000000       0.031
   0.50000000  0.50000000  0.00000000       0.016
  -0.00000000  0.50000000  0.50000000       0.016
   0.50000000  0.00000000  0.50000000       0.016
   0.25000000  0.25000000  0.25000000       0.031
  -0.25000000  0.25000000  0.25000000       0.031
  -0.25000000 -0.25000000  0.25000000       0.031
   0.25000000 -0.25000000  0.25000000       0.031
   0.50000000  0.25000000  0.25000000       0.031
   0.25000000  0.50000000  0.25000000       0.031
   0.25000000  0.25000000  0.50000000       0.031
  -0.25000000  0.50000000  0.25000000       0.031
  -0.25000000  0.25000000  0.50000000       0.031
   0.50000000 -0.25000000  0.25000000       0.031
   0.50000000  0.50000000  0.25000000       0.031
   0.25000000  0.50000000  0.50000000       0.031
   0.50000000  0.25000000  0.50000000       0.031
   0.50000000  0.50000000  0.50000000       0.016
 
 position of ions in fractional coordinates (direct lattice) 
   0.00000001  0.99999997  0.99999992
   0.33333312  0.00000001  0.99999996
   0.66666687  0.99999997  0.99999994
   0.99999998  0.33333310  1.00000000
   0.33333320  0.33333314  0.99999996
   0.66666682  0.33333317  0.99999997
   0.00000001  0.66666693  0.00000009
   0.33333315  0.66666685  0.00000007
   0.66666683  0.66666687  0.00000004
   0.99999995  0.00000006  0.33333318
   0.33333316  0.99999999  0.33333317
   0.66666689  0.00000007  0.33333325
   0.00000001  0.33333308  0.33333311
   0.33333313  0.33333321  0.33333316
   0.66666687  0.33333315  0.33333318
   0.00000007  0.66666685  0.33333305
   0.33333313  0.66666679  0.33333319
   0.66666680  0.66666678  0.33333311
   0.99999997  0.99999998  0.66666691
   0.33333312  0.99999999  0.66666689
   0.66666690  1.00000000  0.66666682
   0.99999995  0.33333305  0.66666690
   0.33333319  0.33333325  0.66666687
   0.66666686  0.33333319  0.66666685
   0.00000006  0.66666698  0.66666686
   0.33333305  0.66666677  0.66666676
   0.66666689  0.66666682  0.66666686
   0.16666684  0.16666674  0.16666680
   0.50000002  0.16666671  0.16666672
   0.83333315  0.16666679  0.16666681
   0.16666671  0.50000004  0.16666673
   0.50000005  0.50000004  0.16666676
   0.83333324  0.50000001  0.16666675
   0.16666685  0.83333319  0.16666678
   0.49999996  0.83333321  0.16666671
   0.83333320  0.83333319  0.16666676
   0.16666675  0.16666678  0.49999998
   0.50000006  0.16666675  0.50000001
   0.83333320  0.16666673  0.49999998
   0.16666678  0.50000002  0.50000003
   0.50000003  0.50000003  0.50000002
   0.83333313  0.49999999  0.50000008
   0.16666676  0.83333317  0.50000001
   0.50000001  0.83333327  0.49999997
   0.83333321  0.83333324  0.50000006
   0.16666683  0.16666680  0.83333322
   0.49999997  0.16666674  0.83333327
   0.83333324  0.16666683  0.83333321
   0.16666676  0.49999999  0.83333324
   0.50000002  0.49999998  0.83333322
   0.83333320  0.50000004  0.83333320
   0.16666681  0.83333319  0.83333322
   0.50000006  0.83333328  0.83333329
   0.83333313  0.83333316  0.83333317
   0.99999998  0.16666687  0.16666687
   0.16666687  0.99999997  0.16666684
   0.16666686  0.16666685  0.99999997
   0.33333329  0.16666688  0.16666687
   0.49999999  0.99999998  0.16666685
   0.50000000  0.16666690  0.99999996
   0.66666672  0.16666688  0.16666686
   0.83333314  0.00000003  0.16666685
   0.83333314  0.16666687  0.00000002
   0.99999998  0.50000003  0.16666687
   0.16666688  0.33333329  0.16666687
   0.16666690  0.50000002  0.99999999
   0.33333330  0.50000002  0.16666685
   0.50000000  0.33333330  0.16666684
   0.50000000  0.50000000  1.00000000
   0.66666672  0.50000003  0.16666685
   0.83333313  0.33333331  0.16666686
   0.83333310  0.50000000  0.00000002
   0.00000004  0.83333311  0.16666684
   0.16666686  0.66666674  0.16666685
   0.16666686  0.83333313  0.00000004
   0.33333329  0.83333309  0.16666683
   0.50000000  0.66666672  0.16666683
   0.50000000  0.83333311  0.00000001
   0.66666666  0.83333310  0.16666684
   0.83333315  0.66666666  0.16666685
   0.83333314  0.83333314  0.99999992
   0.99999996  0.16666686  0.50000000
   0.16666686  0.99999997  0.50000002
   0.16666687  0.16666688  0.33333331
   0.33333330  0.16666686  0.50000000
   0.50000003  0.99999999  0.50000000
   0.50000003  0.16666687  0.33333331
   0.66666674  0.16666684  0.50000001
   0.83333312  0.00000003  0.50000002
   0.83333311  0.16666685  0.33333333
   1.00000000  0.50000000  0.50000002
   0.16666689  0.33333331  0.49999999
   0.16666690  0.50000002  0.33333331
   0.33333331  0.50000002  0.50000000
   0.50000001  0.33333334  0.50000001
   0.50000000  0.50000001  0.33333335
   0.66666670  0.49999999  0.50000002
   0.83333310  0.33333328  0.50000003
   0.83333311  0.50000001  0.33333327
   0.00000001  0.83333313  0.50000004
   0.16666690  0.66666673  0.50000003
   0.16666687  0.83333310  0.33333331
   0.33333328  0.83333313  0.50000002
   0.49999999  0.66666667  0.50000001
   0.50000000  0.83333312  0.33333330
   0.66666672  0.83333317  0.50000001
   0.83333310  0.66666669  0.50000003
   0.83333314  0.83333315  0.33333334
   0.00000003  0.16666685  0.83333314
   0.16666684  0.00000003  0.83333314
   0.16666684  0.16666686  0.66666673
   0.33333330  0.16666685  0.83333314
   0.50000001  0.00000001  0.83333315
   0.50000002  0.16666686  0.66666672
   0.66666666  0.16666688  0.83333313
   0.83333315  0.99999992  0.83333313
   0.83333314  0.16666686  0.66666664
   1.00000000  0.49999999  0.83333312
   0.16666688  0.33333330  0.83333314
   0.16666692  0.50000002  0.66666670
   0.33333328  0.50000000  0.83333314
   0.50000000  0.33333327  0.83333315
   0.50000000  0.49999999  0.66666665
   0.66666672  0.49999997  0.83333313
   0.83333312  0.33333332  0.83333312
   0.83333309  0.49999997  0.66666668
   0.99999994  0.83333316  0.83333313
   0.16666688  0.66666666  0.83333314
   0.16666686  0.83333312  0.66666665
   0.33333332  0.83333315  0.83333314
   0.50000001  0.66666673  0.83333316
   0.50000001  0.83333315  0.66666669
   0.66666674  0.83333315  0.83333315
   0.83333311  0.66666675  0.83333312
   0.83333313  0.83333316  0.66666674
 
 position of ions in cartesian coordinates  (Angst):
   0.00000012 11.95193897 11.95193957
   3.98397736  0.00000013 11.95194005
   7.96796221 11.95193896 11.95193984
  11.95193940  3.98397697 11.95194052
   3.98397824  3.98397750 11.95194007
   7.96796165  3.98397778 11.95194026
   0.00000009  7.96796274  0.00000107
   3.98397771  7.96796170  0.00000083
   7.96796177  7.96796197  0.00000045
  11.95193905  0.00000071  3.98397839
   3.98397775 11.95193923  3.98397819
   7.96796242  0.00000084  3.98397918
   0.00000016  3.98397677  3.98397750
   3.98397741  3.98397831  3.98397816
   7.96796218  3.98397757  3.98397835
   0.00000078  7.96796169  3.98397682
   3.98397742  7.96796097  3.98397842
   7.96796138  7.96796094  3.98397746
  11.95193933 11.95193908  7.96796329
   3.98397733 11.95193921  7.96796303
   7.96796258 11.95193928  7.96796218
  11.95193910  3.98397633  7.96796312
   3.98397817  3.98397871  7.96796285
   7.96796204  3.98397804  7.96796256
   0.00000072  7.96796325  7.96796269
   3.98397652  7.96796073  7.96796143
   7.96796239  7.96796132  7.96796273
   1.99199201  1.99199078  1.99199163
   5.97597002  1.99199037  1.99199069
   9.95994757  1.99199136  1.99199182
   1.99199045  5.97597015  1.99199084
   5.97597040  5.97597012  1.99199125
   9.95994865  5.97596974  1.99199105
   1.99199208  9.95994776  1.99199140
   5.97596929  9.95994792  1.99199059
   9.95994814  9.95994771  1.99199118
   1.99199093  1.99199127  5.97596999
   5.97597054  1.99199082  5.97597038
   9.95994815  1.99199068  5.97596999
   1.99199130  5.97596992  5.97597068
   5.97597016  5.97597000  5.97597051
   9.95994732  5.97596957  5.97597123
   1.99199106  9.95994751  5.97597036
   5.97596996  9.95994865  5.97596994
   9.95994819  9.95994832  5.97597101
   1.99199186  1.99199146  9.95994912
   5.97596943  1.99199076  9.95994976
   9.95994861  1.99199179  9.95994902
   1.99199100  5.97596951  9.95994933
   5.97597002  5.97596939  9.95994906
   9.95994811  5.97597007  9.95994884
   1.99199161  9.95994772  9.95994913
   5.97597058  9.95994882  9.95994997
   9.95994724  9.95994738  9.95994853
  11.95193947  1.99199227  1.99199247
   1.99199233 11.95193892  1.99199215
   1.99199226  1.99199206 11.95194023
   3.98397939  1.99199249  1.99199251
   5.97596975 11.95193913  1.99199225
   5.97596987  1.99199264 11.95194008
   7.96796044  1.99199238  1.99199238
   9.95994738  0.00000031  1.99199233
   9.95994744  1.99199225  0.00000019
  11.95193943  5.97596995  1.99199248
   1.99199245  3.98397930  1.99199251
   1.99199268  5.97596993 11.95194044
   3.98397951  5.97596989  1.99199229
   5.97596982  3.98397937  1.99199218
   5.97596980  5.97596964 11.95194054
   7.96796038  5.97597000  1.99199224
   9.95994726  3.98397945  1.99199241
   9.95994697  5.97596962  0.00000019
   0.00000043  9.95994672  1.99199211
   1.99199225  7.96796042  1.99199223
   1.99199226  9.95994701  0.00000048
   3.98397941  9.95994657  1.99199208
   5.97596978  7.96796023  1.99199205
   5.97596983  9.95994674  0.00000013
   7.96795975  9.95994667  1.99199215
   9.95994748  7.96795950  1.99199227
   9.95994739  9.95994709 11.95193963
  11.95193923  1.99199222  5.97597024
   1.99199227 11.95193901  5.97597055
   1.99199237  1.99199246  3.98397987
   3.98397947  1.99199220  5.97597030
   5.97597012 11.95193925  5.97597032
   5.97597014  1.99199233  3.98397986
   7.96796069  1.99199195  5.97597044
   9.95994715  0.00000032  5.97597053
   9.95994707  1.99199204  3.98398014
  11.95193961  5.97596964  5.97597047
   1.99199260  3.98397943  5.97597021
   1.99199271  5.97596994  3.98397993
   3.98397965  5.97596984  5.97597027
   5.97596998  3.98397985  5.97597040
   5.97596978  5.97596973  3.98398042
   7.96796019  5.97596948  5.97597054
   9.95994697  3.98397908  5.97597060
   9.95994702  5.97596974  3.98397943
   0.00000008  9.95994701  5.97597074
   1.99199272  7.96796033  5.97597059
   1.99199235  9.95994660  3.98397986
   3.98397927  9.95994696  5.97597052
   5.97596975  7.96795953  5.97597035
   5.97596979  9.95994693  3.98397973
   7.96796035  9.95994751  5.97597040
   9.95994691  7.96795986  5.97597058
   9.95994738  9.95994722  3.98398023
   0.00000032  1.99199211  9.95994813
   1.99199204  0.00000031  9.95994813
   1.99199202  1.99199225  7.96796111
   3.98397954  1.99199209  9.95994815
   5.97596993  0.00000010  9.95994831
   5.97597009  1.99199222  7.96796103
   7.96795974  1.99199247  9.95994801
   9.95994753 11.95193835  9.95994798
   9.95994742  1.99199215  7.96796009
  11.95193966  5.97596957  9.95994791
   1.99199245  3.98397936  9.95994814
   1.99199290  5.97596993  7.96796083
   3.98397920  5.97596966  9.95994820
   5.97596986  3.98397905  9.95994827
   5.97596978  5.97596955  7.96796023
   7.96796042  5.97596926  9.95994803
   9.95994722  3.98397963  9.95994786
   9.95994681  5.97596931  7.96796055
  11.95193890  9.95994733  9.95994805
   1.99199252  7.96795951  9.95994811
   1.99199227  9.95994690  7.96796019
[...]
    1     7.40485    -0.00006    -0.00002
    2    -0.00004     7.40498    -0.00002
    3    -0.00003     0.00000     7.40751
 ion   43
    1     7.40495     0.00001     0.00003
    2     0.00003     7.40486     0.00002
    3     0.00003     0.00003     7.40737
 ion   44
    1     7.40480    -0.00008    -0.00001
    2    -0.00007     7.40497     0.00001
    3    -0.00007    -0.00007     7.40732
 ion   45
    1     7.40468     0.00000    -0.00003
    2     0.00000     7.40482    -0.00001
    3     0.00001     0.00002     7.40727
 ion   46
    1     7.40492     0.00002    -0.00003
    2    -0.00005     7.40490    -0.00001
    3    -0.00006     0.00007     7.40730
 ion   47
    1     7.40472    -0.00005     0.00007
    2     0.00003     7.40496     0.00007
    3     0.00002    -0.00003     7.40735
 ion   48
    1     7.40487     0.00005     0.00002
    2    -0.00002     7.40503     0.00003
    3    -0.00002     0.00006     7.40739
 ion   49
    1     7.40503    -0.00000    -0.00002
    2    -0.00006     7.40509    -0.00000
    3    -0.00010     0.00003     7.40733
 ion   50
    1     7.40480     0.00003    -0.00002
    2    -0.00001     7.40495    -0.00004
    3    -0.00001     0.00003     7.40729
 ion   51
    1     7.40482    -0.00005     0.00006
    2     0.00002     7.40511     0.00005
    3     0.00007    -0.00001     7.40733
 ion   52
    1     7.40488    -0.00005    -0.00007
    2     0.00002     7.40478    -0.00006
    3    -0.00001    -0.00001     7.40733
 ion   53
    1     7.40479     0.00001    -0.00000
    2    -0.00002     7.40493    -0.00003
    3     0.00000     0.00003     7.40739
 ion   54
    1     7.40473    -0.00001     0.00006
    2    -0.00003     7.40483     0.00001
    3    -0.00003     0.00000     7.40726
 ion   55
    1    -5.86149    -0.00001     0.00000
    2     0.00002    -2.14684     0.00001
    3    -0.00001    -0.00002    -2.14945
 ion   56
    1    -2.14672     0.00000     0.00001
    2    -0.00000    -5.86153     0.00001
    3     0.00004    -0.00004    -2.14952
 ion   57
    1    -2.14669     0.00001     0.00000
    2     0.00002    -2.14686     0.00001
    3     0.00002    -0.00001    -5.86241
 ion   58
    1    -5.86153    -0.00001    -0.00001
    2     0.00000    -2.14688    -0.00001
    3     0.00002     0.00001    -2.14943
 ion   59
    1    -2.14668     0.00001     0.00001
    2     0.00001    -5.86157    -0.00000
    3     0.00000    -0.00004    -2.14950
 ion   60
    1    -2.14669     0.00000     0.00000
    2     0.00001    -2.14687    -0.00000
    3     0.00001    -0.00000    -5.86248
 ion   61
    1    -5.86153    -0.00001    -0.00001
    2     0.00000    -2.14686     0.00001
    3     0.00002     0.00001    -2.14948
 ion   62
    1    -2.14665     0.00001     0.00001
    2     0.00002    -5.86153     0.00000
    3     0.00005    -0.00004    -2.14945
 ion   63
    1    -2.14669     0.00000     0.00001
    2    -0.00000    -2.14688     0.00001
    3     0.00008    -0.00003    -5.86239
 ion   64
    1    -5.86154    -0.00002    -0.00001
    2    -0.00000    -2.14686     0.00002
    3     0.00002     0.00000    -2.14940
 ion   65
    1    -2.14670     0.00001     0.00001
    2     0.00001    -5.86152     0.00000
    3     0.00003    -0.00003    -2.14950
 ion   66
    1    -2.14672    -0.00001     0.00000
    2     0.00000    -2.14688    -0.00001
    3     0.00001    -0.00004    -5.86247
 ion   67
    1    -5.86151     0.00000    -0.00001
    2     0.00001    -2.14686     0.00001
    3    -0.00002    -0.00002    -2.14946
 ion   68
    1    -2.14670     0.00001    -0.00000
    2     0.00001    -5.86155     0.00000
    3    -0.00000    -0.00003    -2.14953
 ion   69
    1    -2.14670    -0.00000    -0.00000
    2     0.00000    -2.14685     0.00001
    3    -0.00001    -0.00001    -5.86242
 ion   70
    1    -5.86150    -0.00000     0.00000
    2    -0.00001    -2.14686     0.00000
    3    -0.00003    -0.00001    -2.14943
 ion   71
    1    -2.14669     0.00000     0.00001
    2     0.00001    -5.86155     0.00001
    3    -0.00001    -0.00007    -2.14949
 ion   72
    1    -2.14669     0.00000     0.00000
    2     0.00002    -2.14686    -0.00001
    3    -0.00000    -0.00002    -5.86246
 ion   73
    1    -5.86149    -0.00001    -0.00000
    2    -0.00001    -2.14688    -0.00000
    3     0.00002    -0.00002    -2.14942
 ion   74
    1    -2.14670     0.00001     0.00000
    2     0.00000    -5.86153     0.00001
    3     0.00001    -0.00005    -2.14948
 ion   75
    1    -2.14672    -0.00000    -0.00000
    2     0.00001    -2.14687     0.00000
    3     0.00008    -0.00002    -5.86244
 ion   76
    1    -5.86149    -0.00001    -0.00001
    2    -0.00001    -2.14690     0.00001
    3    -0.00001     0.00002    -2.14949
 ion   77
    1    -2.14671     0.00001     0.00000
    2     0.00001    -5.86153     0.00001
    3    -0.00002    -0.00003    -2.14949
 ion   78
    1    -2.14670     0.00001    -0.00001
    2     0.00001    -2.14685     0.00001
    3     0.00003    -0.00003    -5.86246
 ion   79
    1    -5.86149    -0.00000    -0.00000
    2    -0.00000    -2.14685     0.00002
    3     0.00002    -0.00002    -2.14946
 ion   80
    1    -2.14669     0.00001     0.00001
    2     0.00001    -5.86155    -0.00001
    3     0.00000    -0.00003    -2.14944
 ion   81
    1    -2.14670    -0.00001     0.00001
    2     0.00000    -2.14686     0.00001
    3     0.00005    -0.00003    -5.86242
 ion   82
    1    -5.86152     0.00001    -0.00000
    2     0.00000    -2.14687     0.00001
    3    -0.00001     0.00001    -2.14943
 ion   83
    1    -2.14669     0.00002     0.00000
    2     0.00002    -5.86152     0.00001
    3     0.00002    -0.00004    -2.14944
 ion   84
    1    -2.14668     0.00001     0.00001
    2     0.00001    -2.14685    -0.00000
    3     0.00002    -0.00001    -5.86240
 ion   85
    1    -5.86148     0.00001     0.00001
    2    -0.00001    -2.14686     0.00000
    3     0.00001    -0.00003    -2.14945
 ion   86
    1    -2.14668     0.00002    -0.00000
    2     0.00001    -5.86154     0.00000
    3     0.00002    -0.00002    -2.14945
 ion   87
    1    -2.14671     0.00000     0.00001
    2     0.00001    -2.14685    -0.00000
    3     0.00003    -0.00003    -5.86241
 ion   88
    1    -5.86149     0.00000    -0.00000
    2    -0.00001    -2.14684     0.00000
    3     0.00002    -0.00001    -2.14953
 ion   89
    1    -2.14671     0.00001     0.00000
    2     0.00000    -5.86151     0.00001
    3    -0.00001    -0.00005    -2.14944
 ion   90
    1    -2.14668    -0.00000     0.00001
    2     0.00001    -2.14685    -0.00000
    3     0.00005    -0.00006    -5.86243
 ion   91
    1    -5.86153     0.00000    -0.00002
    2    -0.00002    -2.14686     0.00000
    3    -0.00002    -0.00001    -2.14945
 ion   92
    1    -2.14669    -0.00000    -0.00000
    2     0.00001    -5.86152    -0.00001
    3    -0.00003    -0.00001    -2.14941
 ion   93
    1    -2.14668     0.00000    -0.00000
    2     0.00002    -2.14686     0.00002
    3     0.00001    -0.00004    -5.86238
 ion   94
    1    -5.86155     0.00001     0.00001
    2    -0.00002    -2.14685     0.00000
    3     0.00000     0.00002    -2.14942
 ion   95
    1    -2.14669     0.00001     0.00001
    2     0.00001    -5.86154     0.00000
    3     0.00002    -0.00000    -2.14954
 ion   96
    1    -2.14670    -0.00000     0.00000
    2     0.00001    -2.14683     0.00000
    3    -0.00001    -0.00001    -5.86246
 ion   97
    1    -5.86156    -0.00000     0.00000
    2     0.00002    -2.14686     0.00001
    3    -0.00002     0.00001    -2.14945
 ion   98
    1    -2.14668     0.00001     0.00001
    2     0.00001    -5.86152     0.00000
    3     0.00000    -0.00006    -2.14950
 ion   99
    1    -2.14668    -0.00001     0.00002
    2     0.00001    -2.14685     0.00001
    3     0.00004    -0.00004    -5.86248
 ion  100
    1    -5.86149     0.00000     0.00001
    2     0.00001    -2.14687     0.00001
    3    -0.00001     0.00000    -2.14946
 ion  101
    1    -2.14669     0.00002     0.00001
    2    -0.00001    -5.86154    -0.00001
    3     0.00001    -0.00006    -2.14943
 ion  102
    1    -2.14670    -0.00000     0.00000
    2     0.00002    -2.14684     0.00001
    3     0.00005    -0.00005    -5.86236
 ion  103
    1    -5.86151    -0.00000    -0.00001
    2    -0.00000    -2.14684     0.00000
    3     0.00002     0.00003    -2.14940
 ion  104
    1    -2.14670     0.00001     0.00000
    2     0.00001    -5.86156     0.00001
    3     0.00001    -0.00005    -2.14949
 ion  105
    1    -2.14670    -0.00001     0.00002
    2     0.00002    -2.14685     0.00000
    3     0.00000     0.00002    -5.86242
 ion  106
    1    -5.86150    -0.00001    -0.00002
    2    -0.00000    -2.14687     0.00002
    3     0.00002    -0.00001    -2.14949
 ion  107
    1    -2.14672     0.00002     0.00000
    2    -0.00001    -5.86150    -0.00000
    3    -0.00001    -0.00004    -2.14946
 ion  108
    1    -2.14667    -0.00001     0.00001
    2     0.00002    -2.14685     0.00000
    3     0.00002    -0.00001    -5.86240
 ion  109
    1    -5.86146    -0.00000     0.00001
    2     0.00001    -2.14687     0.00001
    3    -0.00001     0.00000    -2.14941
 ion  110
    1    -2.14670     0.00002    -0.00000
    2     0.00001    -5.86154    -0.00000
    3     0.00000    -0.00004    -2.14946
 ion  111
    1    -2.14671    -0.00000    -0.00001
    2     0.00001    -2.14685    -0.00000
    3     0.00000    -0.00005    -5.86239
 ion  112
    1    -5.86151    -0.00000    -0.00001
    2    -0.00001    -2.14686     0.00001
    3     0.00000     0.00002    -2.14944
 ion  113
    1    -2.14669     0.00001    -0.00000
    2     0.00001    -5.86157    -0.00000
    3     0.00007    -0.00003    -2.14942
 ion  114
    1    -2.14669    -0.00001     0.00000
    2     0.00001    -2.14685     0.00002
    3     0.00008    -0.00002    -5.86241
 ion  115
    1    -5.86151    -0.00001     0.00001
    2    -0.00002    -2.14687     0.00000
    3     0.00002    -0.00004    -2.14939
 ion  116
    1    -2.14666     0.00000     0.00001
    2     0.00000    -5.86153    -0.00000
    3     0.00003    -0.00005    -2.14942
 ion  117
    1    -2.14669     0.00001    -0.00001
    2     0.00001    -2.14687     0.00000
    3     0.00000    -0.00003    -5.86243
 ion  118
    1    -5.86154    -0.00000    -0.00001
    2     0.00001    -2.14686     0.00000
    3    -0.00000    -0.00003    -2.14938
 ion  119
    1    -2.14670     0.00002     0.00001
    2     0.00001    -5.86156     0.00000
    3     0.00000    -0.00004    -2.14950
 ion  120
    1    -2.14671    -0.00001     0.00002
    2    -0.00000    -2.14687     0.00000
    3    -0.00001    -0.00003    -5.86243
 ion  121
    1    -5.86154    -0.00001    -0.00001
    2    -0.00000    -2.14685    -0.00000
    3    -0.00001     0.00001    -2.14947
 ion  122
    1    -2.14668     0.00001    -0.00000
    2    -0.00001    -5.86152     0.00001
    3     0.00000    -0.00003    -2.14944
 ion  123
    1    -2.14670    -0.00000     0.00000
    2     0.00001    -2.14687     0.00002
    3     0.00005     0.00000    -5.86244
 ion  124
    1    -5.86152    -0.00000     0.00000
    2     0.00001    -2.14686     0.00002
    3    -0.00003     0.00000    -2.14939
 ion  125
    1    -2.14668     0.00001     0.00000
    2     0.00001    -5.86152     0.00001
    3     0.00003    -0.00009    -2.14940
 ion  126
    1    -2.14667    -0.00000     0.00000
    2     0.00002    -2.14683    -0.00000
    3    -0.00004    -0.00002    -5.86246
 ion  127
    1    -5.86148    -0.00002     0.00001
    2    -0.00002    -2.14686     0.00002
    3    -0.00001    -0.00001    -2.14942
 ion  128
    1    -2.14668     0.00001     0.00001
    2     0.00001    -5.86151     0.00001
    3    -0.00001    -0.00006    -2.14951
 ion  129
    1    -2.14672    -0.00000     0.00001
    2     0.00001    -2.14687     0.00001
    3    -0.00000    -0.00000    -5.86244
 ion  130
    1    -5.86149     0.00000    -0.00000
    2     0.00000    -2.14686     0.00000
    3     0.00000    -0.00004    -2.14951
 ion  131
    1    -2.14671     0.00001     0.00001
    2     0.00002    -5.86154     0.00001
    3    -0.00000    -0.00004    -2.14947
 ion  132
    1    -2.14670    -0.00001     0.00000
    2     0.00001    -2.14687     0.00000
    3     0.00010    -0.00002    -5.86243
 ion  133
    1    -5.86151     0.00000    -0.00001
    2    -0.00001    -2.14687     0.00001
    3     0.00005     0.00002    -2.14933
 ion  134
    1    -2.14669     0.00001     0.00000
    2     0.00001    -5.86155     0.00001
    3    -0.00001    -0.00003    -2.14936
 ion  135
    1    -2.14670    -0.00000     0.00001
    2     0.00001    -2.14688    -0.00000
    3     0.00003    -0.00003    -5.86240


--------------------------------------------------------------------------------------------------------


     LOOP+:  cpu time  41761.1429: real time  42156.0231
    4ORBIT:  cpu time      0.0000: real time      0.0000



 total charge

# of ion       s       p       d       tot
------------------------------------------
    1        2.004   5.636   0.347   7.987
    2        2.004   5.636   0.347   7.987
    3        2.004   5.636   0.347   7.987
    4        2.004   5.636   0.347   7.987
    5        2.004   5.636   0.347   7.987
    6        2.004   5.636   0.347   7.987
    7        2.004   5.636   0.347   7.987
    8        2.004   5.636   0.347   7.987
    9        2.004   5.636   0.347   7.987
   10        2.004   5.636   0.347   7.987
   11        2.004   5.636   0.347   7.987
   12        2.004   5.636   0.347   7.987
   13        2.004   5.636   0.347   7.987
   14        2.004   5.636   0.347   7.987
   15        2.004   5.636   0.347   7.987
   16        2.004   5.636   0.347   7.987
   17        2.004   5.636   0.347   7.987
   18        2.004   5.636   0.347   7.987
   19        2.004   5.636   0.347   7.987
   20        2.004   5.636   0.347   7.987
   21        2.004   5.636   0.347   7.987
   22        2.004   5.636   0.347   7.987
   23        2.004   5.636   0.347   7.987
   24        2.004   5.636   0.347   7.987
   25        2.004   5.636   0.347   7.987
   26        2.004   5.636   0.347   7.987
   27        2.004   5.636   0.347   7.987
   28        2.216   6.283   1.722  10.222
   29        2.216   6.283   1.722  10.222
   30        2.216   6.283   1.722  10.222
   31        2.216   6.283   1.722  10.222
   32        2.216   6.283   1.722  10.222
   33        2.216   6.283   1.722  10.222
   34        2.216   6.283   1.722  10.222
   35        2.216   6.283   1.722  10.222
   36        2.216   6.283   1.722  10.222
   37        2.216   6.283   1.722  10.222
   38        2.216   6.283   1.722  10.222
   39        2.216   6.283   1.722  10.222
   40        2.216   6.283   1.722  10.222
   41        2.216   6.283   1.722  10.222
   42        2.216   6.283   1.722  10.222
   43        2.216   6.283   1.722  10.222
   44        2.216   6.283   1.722  10.222
   45        2.216   6.283   1.722  10.222
   46        2.216   6.283   1.722  10.222
   47        2.216   6.283   1.722  10.222
   48        2.216   6.283   1.722  10.222
   49        2.216   6.283   1.722  10.222
   50        2.216   6.283   1.722  10.222
   51        2.216   6.283   1.722  10.222
   52        2.216   6.283   1.722  10.222
   53        2.216   6.283   1.722  10.222
   54        2.216   6.283   1.722  10.222
   55        1.556   3.454   0.000   5.010
   56        1.556   3.454   0.000   5.010
   57        1.556   3.454   0.000   5.010
   58        1.556   3.454   0.000   5.010
   59        1.556   3.454   0.000   5.010
   60        1.556   3.454   0.000   5.010
   61        1.556   3.454   0.000   5.010
   62        1.556   3.454   0.000   5.010
   63        1.556   3.454   0.000   5.010
   64        1.556   3.454   0.000   5.010
   65        1.556   3.454   0.000   5.010
   66        1.556   3.454   0.000   5.010
   67        1.556   3.454   0.000   5.010
   68        1.556   3.454   0.000   5.010
   69        1.556   3.454   0.000   5.010
   70        1.556   3.454   0.000   5.010
   71        1.556   3.454   0.000   5.010
   72        1.556   3.454   0.000   5.010
   73        1.556   3.454   0.000   5.010
   74        1.556   3.454   0.000   5.010
   75        1.556   3.454   0.000   5.010
   76        1.556   3.454   0.000   5.010
   77        1.556   3.454   0.000   5.010
   78        1.556   3.454   0.000   5.010
   79        1.556   3.454   0.000   5.010
   80        1.556   3.454   0.000   5.010
   81        1.556   3.454   0.000   5.010
   82        1.556   3.454   0.000   5.010
   83        1.556   3.454   0.000   5.010
   84        1.556   3.454   0.000   5.010
   85        1.556   3.454   0.000   5.010
   86        1.556   3.454   0.000   5.010
   87        1.556   3.454   0.000   5.010
   88        1.556   3.454   0.000   5.010
   89        1.556   3.454   0.000   5.010
   90        1.556   3.454   0.000   5.010
   91        1.556   3.454   0.000   5.010
   92        1.556   3.454   0.000   5.010
   93        1.556   3.454   0.000   5.010
   94        1.556   3.454   0.000   5.010
   95        1.556   3.454   0.000   5.010
   96        1.556   3.454   0.000   5.010
   97        1.556   3.454   0.000   5.010
   98        1.556   3.454   0.000   5.010
   99        1.556   3.454   0.000   5.010
  100        1.556   3.454   0.000   5.010
  101        1.556   3.454   0.000   5.010
  102        1.556   3.454   0.000   5.010
  103        1.556   3.454   0.000   5.010
  104        1.556   3.454   0.000   5.010
  105        1.556   3.454   0.000   5.010
  106        1.556   3.454   0.000   5.010
  107        1.556   3.454   0.000   5.010
  108        1.556   3.454   0.000   5.010
  109        1.556   3.454   0.000   5.010
  110        1.556   3.454   0.000   5.010
  111        1.556   3.454   0.000   5.010
  112        1.556   3.454   0.000   5.010
  113        1.556   3.454   0.000   5.010
  114        1.556   3.454   0.000   5.010
  115        1.556   3.454   0.000   5.010
  116        1.556   3.454   0.000   5.010
  117        1.556   3.454   0.000   5.010
  118        1.556   3.454   0.000   5.010
  119        1.556   3.454   0.000   5.010
  120        1.556   3.454   0.000   5.010
  121        1.556   3.454   0.000   5.010
  122        1.556   3.454   0.000   5.010
  123        1.556   3.454   0.000   5.010
  124        1.556   3.454   0.000   5.010
  125        1.556   3.454   0.000   5.010
  126        1.556   3.454   0.000   5.010
  127        1.556   3.454   0.000   5.010
  128        1.556   3.454   0.000   5.010
  129        1.556   3.454   0.000   5.010
  130        1.556   3.454   0.000   5.010
  131        1.556   3.454   0.000   5.010
  132        1.556   3.454   0.000   5.010
  133        1.556   3.454   0.000   5.010
  134        1.556   3.454   0.000   5.010
  135        1.556   3.454   0.000   5.010
--------------------------------------------------
tot        240.009 601.613  55.856 897.478
 

 total amount of memory used by VASP MPI-rank0   409944. kBytes
=======================================================================

   base      :      30000. kBytes
   nonl-proj :     242300. kBytes
   fftplans  :      12056. kBytes
   grid      :      11261. kBytes
   one-center:        528. kBytes
   wavefun   :     113799. kBytes
 
  
  
 General timing and accounting informations for this job:
 ========================================================
  
                  Total CPU time used (sec):    41871.707
                            User time (sec):    41238.602
                          System time (sec):      633.106
                         Elapsed time (sec):    42269.645
  
                   Maximum memory used (kb):     1205168.
                   Average memory used (kb):          N/A
  
                          Minor page faults:     73975127
                          Major page faults:           12
                 Voluntary context switches:        33181
